
112852  0.0000000e+00
  63.7162256  68.0172777  53.3963728  62.7699471  68.3238077  53.5715818
  63.6763477  67.8940725  52.3947048  64.4034052  68.7082672  53.6617374
  63.9076805  66.6952610  54.0307951  63.0382061  66.0814285  53.7955952
  65.1230574  65.9875393  53.3489275  64.8972034  65.9448099  52.2834396
  66.0429096  66.5578556  53.4781837  65.2913713  64.5244884  53.8016176
  64.3926620  63.8261795  54.2935085  66.5314293  64.0843678  53.9596605
  66.6871691  63.1933022  54.4089317  67.2877932  64.6423244  53.5899305
  64.1209841  66.8390894  55.4753733  64.5854139  67.8803444  55.9294224
  63.7167835  65.8122969  56.3087559  63.3502007  64.9672222  55.8945417
  63.7735987  65.8572769  57.7533245  63.3129787  66.8228769  57.9619932
  62.9843760  64.6386051  58.3199263  63.2633495  64.5512247  59.3699932
  61.9068480  64.7939348  58.3738375  63.2010460  63.1507969  57.7741385
  62.9304075  63.2457638  56.7225552  64.6777344  62.8068924  57.8806877
  65.0396395  62.9243135  58.9021254  64.9084806  61.7695904  57.6380634
  65.2227497  63.5153770  57.2568989  62.3471498  62.0922709  58.4906101
  61.3099909  62.3707342  58.3038950  62.6289797  61.1048555  58.1249809
  62.4560261  62.1159887  59.5748997  65.2097988  65.9940910  58.3099031
  66.2382078  65.8687878  57.5925112  65.2713060  66.3886690  59.5759583
  64.3956041  66.3883924  60.0791883  66.4897108  66.7489052  60.3013039
  67.0458794  67.5014734  59.7423506  66.1710978  67.4456215  61.6602993
  67.0679188  67.9539156  62.0144892  65.3372908  68.1449223  61.5982580
  65.8569860  66.4325142  62.5630999  65.0892830  66.7255926  63.0594206
  67.3246384  65.5092239  60.6113863  66.8328762  64.4107819  60.5346870
  68.6262274  65.6302929  61.0009956  69.4217443  66.8528795  60.7986784
  69.3764210  67.5740385  61.6147518  69.0801239  67.4058437  59.9236774
  70.9142017  66.3243389  60.5801773  71.6508722  67.0730066  60.8715868
  70.9416676  66.0645533  59.5219421  70.8405495  65.2289677  61.6381741
  70.9163809  65.6549358  62.6386261  71.6348982  64.4979525  61.4874411
  69.4348907  64.5325661  61.4456320  69.5538425  63.7163401  60.7330799
  68.8462019  63.8703537  62.7088404  68.9635372  62.5895786  62.7604008
  68.2460022  64.6164799  63.6088371  68.2474136  65.6230497  63.5256720
  67.5335550  64.1118574  64.7973967  68.3009195  63.5309839  65.3090906
  66.9533062  65.2731848  65.6470251  67.7467871  66.0153913  65.7343149
  66.1807394  65.8598518  65.1499653  66.3566971  64.9411249  67.0412493
  65.5176163  64.2977333  66.7764997  67.3515081  64.2305994  67.9352236
  67.8119326  63.4074545  67.3888397  68.0955744  64.9268723  68.3220959
  66.7418814  63.9060211  68.7784958  65.6775618  66.0879850  67.7680635
  66.4349937  66.7438269  68.1973314  65.0790358  66.6796684  67.0754004
  65.0552273  65.7325840  68.5893345  66.3527966  63.2379246  64.4346809
  66.2098742  62.0848846  64.9073839  65.5419302  63.6914635  63.4678555
  65.8023787  64.6006060  63.1132698  64.4761324  62.9335165  62.8841209
  63.7314034  62.6547289  63.6296129  63.6731386  63.8360548  61.9165754
  64.3950748  64.1904926  61.1808538  63.0186892  63.1889439  61.3325930
  62.8550339  64.9928856  62.6027822  62.0655298  64.4753170  63.1476736
  63.5142708  65.5258274  63.2879639  62.3395872  66.0034561  61.5880203
  63.1046581  66.9245338  61.2506056  61.1566925  65.9953451  61.2581205
  64.9890137  61.5957689  62.2436142  64.4769192  60.5170631  62.5406408
  65.9835863  61.6994333  61.3423634  66.4227486  62.5874519  61.1457348
  66.5873575  60.5320215  60.7456398  65.8394575  60.1378393  60.0576162
  67.6900387  60.9708548  59.7313356  67.6939821  60.2188540  58.9422989
  67.4421644  61.8604898  59.1523647  69.0224075  61.0938597  60.2794886
  68.9964485  61.6199827  61.0820580  67.1254015  59.4555902  61.7678690
  66.7540741  58.2563829  61.7170668  67.8329706  59.8577595  62.8813648
  68.1691265  60.8084059  62.9393816  68.2500124  58.9400768  64.0464544
  68.8491058  58.1057549  63.6816263  69.0765142  59.7515154  65.0749254
  70.0289202  60.0199413  64.6177912  68.5202932  60.6835413  65.1751614
  69.2967272  59.1292000  66.4568853  68.3226538  58.7269831  66.7352819
  70.2918482  58.0462790  66.2941360  70.0537205  57.2338104  65.6076288
  71.2863398  58.4231186  66.0552120  70.3134727  57.6476479  67.3083973
  69.6850395  60.1942682  67.5076199  70.7305193  60.4952288  67.4405956
  68.9663839  61.0100508  67.4292660  69.5856762  59.6922541  68.4700203
  67.0682907  58.3246088  64.7110462  67.0246744  57.1173477  64.9480581
  66.0618019  59.1168165  65.0907230  66.2229300  60.1024771  64.9403524
  64.7489595  58.7184620  65.6608057  64.8664904  58.3110142  66.6649342
  63.8942862  59.8863649  65.9001684  62.8710651  59.5614958  66.0887718
  64.2600393  60.4453897  66.7614555  64.0339804  60.5234289  65.0268173
  64.0773630  57.6441097  64.7655535  63.7651157  56.5485096  65.2421379
  64.0295839  57.9200125  63.4745884  64.3087816  58.8348103  63.1500816
  63.5428143  56.9018745  62.4797106  62.5027466  56.7304945  62.7571726
  63.5107183  57.4447155  61.0109234  62.9686451  58.3867407  61.0936642
  64.5201254  57.5720167  60.6197834  62.7707767  56.6276360  60.0601101
  63.3155823  55.9637976  59.0545654  64.3114996  56.1573601  58.6843204
  62.4638271  55.0545263  58.5286045  62.7587032  54.3720627  57.8449345
  61.2049866  55.1583767  59.1024446  60.0158501  54.4129276  58.9189196
  59.9366379  53.6598730  58.1488323  58.8803244  54.7855234  59.7023487
  57.9493046  54.2383289  59.6886587  58.9761019  55.8946896  60.5326366
  58.0358839  56.1408234  61.0036039  60.1726484  56.6396475  60.6861162
  60.1362705  57.4518824  61.3969994  61.3469553  56.2136936  60.0869274
  64.2887831  55.5497503  62.5704479  63.6299229  54.5241737  62.7290154
  65.6315136  55.5102921  62.6413965  66.0788584  56.4154577  62.6673889
  66.4769268  54.3289995  62.6285124  66.1201048  53.6954975  61.8164396
  67.9683781  54.6981525  62.4126959  68.2395887  55.3989363  63.2022858
  68.4915590  53.7419176  62.4150896  68.2088137  55.4030418  61.0554647
  68.2631731  54.6325588  60.2863741  67.3292017  55.9749174  60.7599306
  69.5431376  56.2666225  60.9999943  70.6427717  55.9001112  61.4273930
  69.4668627  57.5017309  60.5605555  70.3264475  57.9592896  60.2924967
  68.5412025  57.8997564  60.4911232  66.2910318  53.5025883  63.8983679
  66.0704374  52.3028755  63.9397669  66.1653948  54.2293215  65.0195742
  66.1069202  55.2232885  64.8501253  65.7384348  53.7877417  66.3805866
  66.4305782  52.9664564  66.5664244  65.8528280  54.9030828  67.4741602
  65.2205658  55.7771635  67.3181677  65.3628397  54.4683790  68.8508654
  65.9131050  53.5514116  69.0617800  65.6320095  55.2373981  69.5749235
  64.2844868  54.3098259  68.8401365  67.3535442  55.3874445  67.6319695
  67.2779608  56.1842918  68.3718538  67.9087925  54.5317411  68.0161142
  67.8339911  55.7129145  66.7092896  64.4486570  53.0773687  66.2358856
  64.4013882  51.8603134  66.5543604  63.4121037  53.7593889  65.7816744
  63.4697676  54.7492933  65.5896711  62.0655823  53.1991863  65.7141209
  61.8201733  53.0268288  66.7620564  61.1701441  54.2887163  65.2023649
  61.0032415  55.0929880  65.9188747  61.5763426  54.9152756  64.4083071
  59.7666693  53.8550949  64.8352051  59.4994831  53.0881739  65.5622149
  59.0170097  54.6342611  64.9730730  59.6176004  53.3588552  63.4154272
  60.1164818  53.9621639  62.6569796  60.0303555  52.3532057  63.3354187
  58.1689215  53.2810211  62.9007196  57.8019714  54.2883062  62.7036715
  58.1554747  52.7905178  61.9274139  57.2351980  52.6792574  63.8758898
  57.6955366  51.9304132  64.3733120  57.1175814  53.1896782  64.7394514
  56.3731432  52.3676491  63.4517860  62.1040392  51.9511509  64.8919058
  61.6434860  50.9529924  65.4239511  62.6887035  51.9057226  63.7150383
  62.9718590  52.8065443  63.3566523  62.8522205  50.7800674  62.8458500
  61.9090080  50.5485964  62.3510027  63.5273075  51.2404156  61.5458298
  64.5511341  51.5880251  61.6838217  63.6011171  50.3811789  60.8792210
  62.4856949  52.4418020  60.6239939  62.8001881  53.4731865  61.4128160
  63.4988499  49.5190430  63.4225655  62.9511976  48.4072256  63.3843231
  64.6176529  49.7574377  64.1399860  64.9669456  50.6931782  64.2899561
  65.3244972  48.7071896  64.8429298  65.4635143  47.8309822  64.2096519
  66.7819786  49.2341614  65.1139688  67.3242760  49.4799709  64.2009544
  66.5988636  50.2130270  65.5571365  67.6042223  48.3475685  66.0489082
  67.0605803  48.4212160  66.9907856  67.7301073  46.8889713  65.6771660
  68.0319929  46.7942476  64.6340990  68.3469152  46.4133167  66.4396667
  66.7646599  46.3836336  65.6518030  69.0595436  48.8812780  66.2000751
  69.3990469  49.1990709  65.2142572  68.9191294  49.7609425  66.8282270
  69.7934484  48.2003593  66.6311598  64.5056915  48.1966972  66.1041594
  64.4299603  47.0088673  66.3057947  63.8805962  49.1198874  66.8568373
  64.0351439  50.0857592  66.6052389  63.2198811  48.8111162  68.1054163
  63.8465071  48.3094263  68.8428116  62.7658892  50.1428127  68.7826395
  62.1442556  50.6856632  68.0706167  61.9925880  49.8643780  69.4985867
  63.8353872  51.0652685  69.4630718  64.5039511  51.5348625  68.7415409
  63.1334829  52.0821142  70.3210640  62.4292326  51.5489340  70.9597015
  63.8612461  52.6095152  70.9377575  62.6713467  52.8482485  69.6985149
  64.6889496  50.1226377  70.2715445  65.2983427  50.7147551  70.9542894
  64.1452646  49.4059324  70.8870411  65.5109501  49.7391033  69.6671295
  62.0401859  47.8626251  67.9333973  61.6517353  47.1769333  68.8768244
  61.3953876  47.8447580  66.7650318  61.8146801  48.2707119  65.9508705
  60.4245138  46.8035221  66.3476419  59.4834566  46.8186855  66.8974543
  60.0324249  46.9670200  64.9176979  59.6345282  47.9489565  64.6615982
  60.9593296  46.9501352  64.3444061  58.9798498  45.9022617  64.5179319
  59.4612598  44.9436569  64.3244743  58.1604862  45.7717180  65.2248287
  58.4101152  46.2665653  63.1912947  57.5889730  45.5888557  62.9577637
  57.9209137  47.2400665  63.2241344  59.4733238  46.2801933  62.0136881
  60.1449108  47.1335983  62.1073484  60.0907850  45.3864288  62.1033192
  58.7272167  46.4485264  60.7318354  58.1422949  45.6583405  60.5003881
  58.2562065  47.3372555  60.8235836  59.3425417  46.6086149  59.9470806
  60.9584856  45.3741646  66.5241003  60.1232672  44.5801735  67.0080090
  62.2184277  45.0336218  66.2052917  62.8097248  45.7817554  65.8724737
  62.9035807  43.7019348  66.4172983  62.2621727  42.8621960  66.1498260
  64.1332722  43.6646795  65.4848003  64.8105001  44.5144939  65.5701542
  64.6899700  42.7665663  65.7523441  63.7134361  43.6157036  64.0426064
  63.6900473  42.4105787  63.3773327  63.8439465  41.4780092  63.8998508
  63.1285572  42.3470688  62.1098852  63.1880236  41.4098787  61.5764618
  62.6049995  43.5758066  61.5323210  62.0274591  43.4287167  60.3102350
  61.8103600  44.2881727  59.9417257  62.8060722  44.8509169  62.1065044
  62.5872183  45.8034849  61.6470242  63.3665180  44.8085880  63.4429264
  63.5953045  45.7436752  63.9324903  63.3137083  43.5162115  67.9405737
  63.3014536  42.4083996  68.4314585  63.4959269  44.5739460  68.7300348
  63.5086060  45.4874563  68.2994127  63.9452887  44.3541956  70.1196766
  64.5942402  43.4786606  70.1397133  64.8204470  45.4371119  70.7628298
  64.3000698  46.3826609  70.6103706  64.9476480  45.2273512  71.8248653
  65.9947777  45.3928757  70.0086260  66.4153147  44.5886087  70.3215170
  62.6648903  44.1284847  70.9705877  62.0524883  44.9521494  71.6653299
  62.2235394  42.9088211  70.9741926  62.5963068  42.2424269  70.3130817
  61.0471582  42.4164629  71.7974949  60.2406597  43.0770540  71.4792490
  60.5767250  40.9780741  71.3896799  59.5762825  40.6927538  71.7149591
  60.6478786  40.6903696  69.8822498  61.6909075  40.7809639  69.5789576
  60.1194143  39.8035622  69.5324039  60.2611732  41.5467310  69.3298006
  61.4958477  40.0688887  71.9579887  62.3020887  40.0598907  71.4369392
  61.1880112  42.5071049  73.3349657  60.2051258  42.5023794  74.1120148
  62.3751926  42.7752972  73.8460779  63.0872059  42.9009581  73.1408453
  62.6315355  43.2522726  75.2696943  62.1624517  42.5925922  75.9996796
  64.0493679  43.0991173  75.6250906  64.2495584  43.4818029  76.6258764
  64.3454695  41.5876245  75.6249142  64.2044163  41.1525011  74.6355343
  65.4095316  41.4713430  75.8307171  63.7936831  41.0681391  76.4083481
  64.8022938  43.7603617  74.6321487  65.3372288  44.3304968  75.1892805
  62.1215630  44.6634531  75.5434561  61.9926167  45.1359272  76.6766500
  61.7622566  45.4544783  74.5543718  61.8564892  45.1274014  73.6034489
  61.2946653  46.7791700  74.7592545  61.9990826  47.2368288  75.4538393
  61.3730049  47.4431086  73.4063721  62.2435904  47.0795631  72.8604650
  60.5625296  46.9693470  72.8524876  61.3437843  48.9666462  73.4407806
  60.3118849  49.7520733  73.0778217  59.3238020  49.3954039  72.8270626
  60.5147791  51.0753012  73.3258009  59.8469210  51.8233919  73.2057047
  61.8393946  51.2297630  73.6679363  62.5485945  52.3535156  74.0937281
  62.0450926  53.3059025  74.0172577  63.8663673  52.1767902  74.5453310
  64.3677330  52.9964542  75.0384617  64.4928265  50.9172678  74.4146681
  65.4473591  50.7540655  74.8928308  63.7467527  49.7771835  73.9905357
  64.1791487  48.7919044  73.8975143  62.4051619  49.9348307  73.6943674
  59.8265362  46.8865871  75.2541256  58.9577293  46.1624050  74.7483587
  59.6282148  47.7526808  76.2347269  60.4534721  48.2059002  76.6002989
  58.3786726  48.3067942  76.7894268  57.4990225  47.7127552  76.5415525
  58.3956480  48.2722044  78.3440495  59.3415499  48.7223577  78.6452770
  57.5914955  48.8147449  78.8411283  58.2030201  46.8262577  78.7996769
  57.2536087  46.3148212  78.6410761  59.0232563  46.2275839  78.4035635
  58.3730364  46.9314528  80.3223133  59.3888283  47.2982216  80.4698372
  57.6951981  47.6328707  80.8087730  58.1677532  45.6185961  81.0957718
  57.2154760  45.1259089  80.8994675  58.9822102  44.9661493  80.7810020
  58.4032059  45.7974482  82.5208378  59.2732763  46.2564802  82.7496910
  57.6662493  46.2164593  83.0698586  58.5716343  44.9187136  82.9894066
  58.0954695  49.7252941  76.2380791  58.6376905  50.6978321  76.8068695
  57.3863935  49.8019743  75.1087475  57.0035887  48.7273026  74.1672611
  56.4322567  47.9005003  74.5892620  57.9381514  48.4335661  73.6893320
  56.1164188  49.4270754  73.1401157  55.1215458  49.4078302  73.5850477
  56.0249090  48.8141966  72.2433901  56.5931368  50.8201742  72.9794550
  55.8338404  51.5069008  72.6053047  57.5273705  50.7685900  72.4203062
  56.9225264  51.0668135  74.4742393  57.7344131  51.7940521  74.4660854
  55.6785250  51.6398287  75.2231216  54.8355103  50.8878136  75.7557631
  55.5687046  52.9669094  75.2823830  56.4027929  53.4615421  74.9999857
  54.4748449  53.7563562  75.5477285  54.0275002  53.5664511  76.5233946
  54.9468422  55.2209091  75.6346512  55.7689095  55.2850533  76.3475275
  55.3250599  55.5171680  74.6562433  53.8891745  56.3233423  76.0458374
  52.9178429  56.1185932  75.5956173  53.7649155  56.3442802  77.6139879
  52.8944349  56.9337988  77.9017973  53.6855602  55.3258896  77.9943800
  54.6127939  56.9148970  77.9929304  54.2285204  57.7232742  75.6383181
  54.4067001  57.7986097  74.5656157  53.4192228  58.4124422  75.8795261
  55.1723814  58.0085564  76.1029053  53.4554386  53.6235714  74.4410181
  53.8382006  53.4122467  73.2948017  52.2046614  53.6972380  74.8104382
  51.9873667  53.6194134  75.7937098  51.1048603  53.7000608  73.8163424
  51.2465668  52.8026581  73.2141018  49.7679520  53.5705090  74.5526552
  49.7405863  52.6232195  75.0911713  49.6821737  54.2748594  75.3800821
  48.5363245  53.6983252  73.7096071  48.6558867  53.7276173  72.5005627
  47.3983192  53.7353230  74.2755604  46.6322517  53.6096573  73.6294603
  47.3307419  53.7478065  75.2832222  51.2754154  54.9667835  72.9430485
  51.3926172  56.1050320  73.4555960  51.3053751  54.8057318  71.5747881
  51.5129423  53.5413074  70.8240986  50.5951262  52.9533386  70.8251810
  52.3345947  52.9836082  71.2735033  51.8788433  53.9184380  69.4028378
  51.6323042  53.1543636  68.6656094  52.9444361  54.1412067  69.3482304
  51.1647511  55.2259445  69.2134857  50.1719904  54.9847794  68.8335276
  51.7295074  55.7899523  68.4711599  51.1454487  55.9016275  70.6077385
  51.9193459  56.6488647  70.7832956  49.8697329  56.8199253  70.7296944
  49.9111891  58.0418110  70.6801319  48.7794924  56.1961889  71.1478329
  48.8392925  55.1905632  71.2202215  47.5150537  56.7168331  71.6934538
  47.3587990  57.7037239  71.2578583  46.3441086  55.7675076  71.3446808
  46.4619303  55.2451563  70.3952789  46.2450027  55.0153685  72.1273565
  44.9957085  56.5793800  71.3102341  44.8032522  57.5097752  70.6183434
  43.9946270  56.2936068  72.2138548  43.2058620  56.9243860  72.2221756
  44.1228533  55.6188536  72.9543686  47.5771236  57.0925856  73.1960058
  46.5425825  57.4455547  73.7955713  48.7689734  57.1959448  73.7674856
  49.5728350  56.9037962  73.2303095  48.8546228  57.7610874  75.1502228
  48.2875443  57.1044493  75.8100319  50.2265167  57.7517176  75.7507086
  50.4538345  56.6945982  75.8882999  50.9869909  58.2117224  75.1196957
  50.3453445  58.3038712  77.0521879  50.0974894  57.5986671  77.6545620
  48.2969332  59.1499901  75.3044033  48.3611107  60.0451517  74.4647551
  47.7101231  59.3753052  76.4479923  47.5863838  58.5830545  77.0620966
  46.9864225  60.6036234  76.7982101  46.1599255  60.8552885  76.1336279
  46.2720442  60.5171490  78.1619024  45.6658983  61.4174700  78.2624722
  45.5264425  59.7220993  78.1533337  47.2317934  60.3645706  79.2963266
  47.7905226  59.2584562  79.8031902  47.6480198  58.2405758  79.4714880
  48.4725857  59.5494795  81.0083199  48.8895655  58.8619995  81.6195488
  48.5433388  60.9091425  81.2420559  49.2758512  61.6803646  82.1115208
  49.9407864  61.2452221  82.8428936  49.2451859  63.0692005  81.9083881
  49.8432922  63.6953592  82.5538349  48.4744930  63.6481190  80.8809853
  48.4582758  64.7116661  80.6939030  47.7634716  62.8057432  79.9871206
  47.3575354  63.2204390  79.0762758  47.7189684  61.4306116  80.1588535
  47.9496193  61.8108177  76.7504978  47.5124454  62.9528475  76.6164637
  49.2730999  61.6153574  76.8901873  49.4633389  60.6761742  77.2093248
  50.3697824  62.5621128  76.6780376  50.2674294  63.3085394  77.4657345
  51.6931534  61.8347931  76.9366169  51.6910028  61.0888147  76.1418772
  52.5225019  62.4912071  76.6731691  51.9362164  61.2006474  78.3406401
  51.1471939  60.4947567  78.5999870  53.2820463  60.4438114  78.3576393
  53.2606459  59.6760559  77.5841999  54.1644049  61.0789728  78.2794333
  53.3928490  59.9384546  79.3170309  52.1016169  62.3223400  79.4278622
  52.8113794  63.0573416  79.0482426  51.1437368  62.8308487  79.5373678
  52.4165583  61.9012165  80.3826237  50.3930330  63.2570076  75.2878237
  50.6323481  64.4424486  75.1617956  50.0588369  62.4417782  74.2874336
  49.7291374  61.5091944  74.4916058  49.7664642  62.9048014  72.9564333
  50.6007433  63.5829210  72.7768898  49.8489141  61.8579292  71.8109941
  49.2558479  60.9597921  71.9833946  49.5122910  62.3491859  70.8980560
  51.2159348  61.2659740  71.6689444  51.5316057  60.0011587  72.2529268
  50.7870674  59.4232655  72.7802849  52.8416634  59.4905090  72.1834373
  53.0801582  58.5688877  72.6934767  53.8599730  60.2249670  71.5164852
  55.0691652  59.6294928  71.2448835  55.2581072  58.8512707  71.7742920
  53.5321283  61.4178133  70.8940268  54.2246485  62.0628309  70.3736734
  52.2450256  61.9772196  71.0223293  52.1045589  62.9291582  70.5319405
  48.4662867  63.8116932  72.7453852  48.4484577  64.8248529  72.0260525
  47.3483276  63.4195232  73.2966471  47.4013329  62.4505997  73.5767937
  46.0999823  64.1834402  73.4082794  45.8446360  64.5553827  72.4160290
  44.9520540  63.2802296  73.8814974  45.0694370  62.9017448  74.8969173
  44.0977907  63.9456463  74.0062094  44.7510052  62.0758247  72.9579782
  44.0523291  62.0409346  71.7030573  44.0643930  60.7388687  71.3448191
  43.8286924  60.4265642  70.3381777  44.7908163  59.9752045  72.1982431
  44.9438667  58.9801168  72.1177578  45.2117157  60.8005381  73.2659960
  45.8021259  60.5221701  74.1264200  46.1730719  65.4608250  74.2715216
  45.3950644  66.4068365  74.1097879  47.0661259  65.4976130  75.2601385
  47.6152039  64.6722174  75.4533720  47.4051666  66.6247034  76.1382866
  46.4726639  67.1707153  76.2811613  47.8128195  66.0804319  77.5069714
  47.9567242  66.9197416  78.1873798  46.9650269  65.5149794  77.8937721
  48.6413574  65.3725243  77.5293064  48.4310818  67.5942945  75.5265570
  48.8856506  68.5014534  76.2699556  49.0048075  67.3080206  74.3318272
  48.5478973  66.5388536  73.8630867  49.9706221  68.0444622  73.5841703
  50.3408527  67.4373102  72.7580976  49.3822241  69.3543196  72.9486942
  49.0691757  69.9768877  73.7868547  50.1592302  69.8491001  72.3659754
  48.2320595  69.1737509  72.0546055  48.5367107  68.9058208  71.0429239
  47.5044107  68.4644222  72.4489164  47.5272512  70.5177069  71.9476509
  46.4695644  70.3206587  71.7728186  47.5680876  71.1433077  72.8393078
  48.1123304  71.4583969  70.9543705  49.1509771  71.7081785  71.1709785
  48.1356907  70.9016228  70.0175810  47.2205830  72.6510715  70.8486795
  46.2719965  72.3870087  70.6238365  47.0729589  73.1886816  71.6908741
  47.6265287  73.2673359  70.1591015  51.2766218  68.3400869  74.3441963
  51.7656755  69.4462490  74.2992163  51.6868305  67.3145771  75.0688171
  51.1873627  66.4508915  74.9117088  52.9490471  67.3196697  75.8660221
  53.2165909  68.3589554  76.0568142  52.7514935  66.5234518  77.1675301
  52.4382114  65.5199289  76.8796110  53.7023592  66.3745928  77.6791859
  51.6879511  67.0559835  78.1516457  50.6608582  66.9575453  77.8002405
  51.6593122  66.2432337  79.4058180  52.6238537  66.0514545  79.8758984
  51.1072683  66.6514254  80.2524185  51.3369608  65.2595186  79.0645027
  51.9224834  68.5759640  78.3863306  51.3567781  68.9599800  79.2352152
  52.9741287  68.8266850  78.5251856  51.5487576  69.0647030  77.4865723
  54.0448904  66.6731215  74.9156189  55.1996851  67.0416594  75.0671482
  53.6132288  65.8103132  74.0070868  52.6203108  65.6708288  73.8855886
  54.4237709  65.1727724  72.9932642  55.4073429  65.6324196  72.8962469
  54.6030855  63.6947966  73.2931757  53.6150789  63.2346821  73.2779551
  55.2287817  63.1988525  72.5511169  55.3752661  63.3303404  74.6509552
  54.9458170  63.7712622  75.5505466  55.1677227  61.7750740  74.8662472
  54.1077709  61.5217447  74.8457146  55.6864548  61.2835646  74.0431833
  55.5468893  61.5158701  75.8547497  56.7619896  63.7930822  74.6929979
  57.3983812  63.0405951  74.2273045  56.9269896  64.7538996  74.2054462
  57.0666265  63.9025211  75.7338285  53.7177944  65.3604650  71.6537046
  52.4912262  65.3987980  71.5925837  54.5605230  65.5723715  70.5851889
  55.5352211  65.3702736  70.7561350  54.1523552  65.8691549  69.2568827
  53.0729294  66.0173702  69.2256498  54.8729134  67.1551752  68.7995338
  55.0074720  67.8411150  69.6358824  55.8309460  66.8053532  68.4149504
  53.9390087  67.9081631  67.7294016  52.8574800  67.4650002  67.2791004
  54.3245745  69.0120792  67.2741222  54.4909668  64.6794319  68.3319187
  55.6764412  64.3706799  68.0871677  53.4959745  64.0894890  67.6754856
  52.0208836  64.3029070  67.9618645  51.5672445  65.1637554  67.4706888
  51.8414927  64.3670130  69.0350866  51.4560699  62.9745626  67.3190308
  51.0164881  63.2587290  66.3629341  50.7101917  62.5733042  68.0051517
  52.6241970  62.0013857  66.9794798  52.3159361  61.3397074  66.1700010
  52.8383112  61.4698744  67.9067183  53.7209988  63.0742884  66.6576576
  54.6312332  62.5202322  66.8869972  53.7366390  63.5360527  65.2147150
  53.9585638  62.8191233  64.2799807  53.5554123  64.8557806  65.0625181
  53.4783173  65.3862429  65.9185362  53.5584259  65.5170250  63.7349796
  52.9661083  64.8804665  63.0776644  52.9846096  66.8727875  63.9407444
  53.8012123  67.5221920  64.2562389  52.5008011  67.1808100  63.0138397
  51.9759846  67.0272589  64.9618435  52.2698021  67.1189833  65.8711576
  54.9418592  65.6456089  63.0464840  55.1681852  66.5015316  62.1887064
  55.8526134  64.7998428  63.5166979  55.5541325  64.1937828  64.2675018
  57.3190689  64.7169447  63.1976843  57.4994850  64.5166397  62.1415472
  58.0672455  66.0076809  63.5852718  58.0595875  66.7892599  62.8255510
  57.5836563  66.7222834  64.9352074  58.1415701  67.6271057  65.1763201
  56.5773964  67.1402407  64.9059010  57.7055502  65.9273481  65.6709576
  59.4115448  65.8462238  63.7640524  59.8149729  65.8236217  62.8932285
  57.7840948  63.4428692  63.9195299  57.1384430  62.9979134  64.8979998
  58.9241266  62.7593899  63.6074829  59.5680046  62.7852011  62.3189688
  60.0056648  63.7620306  62.1131659  58.8469839  62.5972652  61.5234137
  60.6685638  61.7689943  62.3434401  61.5083933  62.0574236  62.9755783
  61.0336590  61.4429760  61.3695240  60.0718784  60.6268406  63.1312418
  60.8893585  60.0249624  63.5281944  59.4383764  60.0798273  62.4329948
  59.1882420  61.4131021  64.1811514  58.3195925  60.7841253  64.3759203
  59.9402666  61.4499807  65.5484200  60.3794050  60.3847313  66.0203218
  60.3616619  62.6925039  66.0743475  59.9147415  63.5001993  65.6644821
  61.4207697  62.6947021  67.0685673  62.2374344  62.0849419  66.6821098
  61.9492674  64.1703463  67.3183537  62.7099848  64.1213846  68.0974674
  62.6335382  64.6667814  66.0653400  61.8912745  64.9928856  65.3367805
  63.1991816  65.5983734  66.0821915  63.2992601  63.8850689  65.6994963
  60.8864498  65.1567888  67.7383184  60.3187561  65.5738115  66.9064951
  60.1819086  64.6200037  68.3735991  61.2063837  65.9299517  68.4368610
  60.9869099  62.0724106  68.4326267  61.8295860  61.7971039  69.2711782
  59.7131014  61.9357824  68.7255478  59.1468859  62.2095633  67.9352665
  59.0485620  61.5653944  69.9040508  59.3006849  62.3432112  70.6248426
  57.5652218  61.4950323  69.6439981  57.1149158  60.9900856  70.4986000
  57.0894337  62.4738979  69.5843506  57.2177887  60.5844545  68.5052347
  57.4635029  59.2078495  68.4343481  57.2005081  58.8670015  67.1206713
  57.2007608  57.8652430  66.7170858  56.8533134  59.9089432  66.3591528
  56.5517616  59.8058081  65.4007483  56.8628216  61.0141039  67.2578669
  56.7025089  62.0513678  67.0033360  59.5821142  60.2885723  70.5510235
  59.8240852  60.3836155  71.7621708  59.9587250  59.2066669  69.8258018
  59.7404957  59.1829109  68.8399458  60.6257629  58.0361366  70.4023170
  59.9496174  57.5194645  71.0834742  60.8957481  56.9919491  69.2581177
  59.8937178  56.6783714  68.9653540  61.6468430  57.4991131  68.0417585
  61.8005896  56.6793203  67.3400450  61.2727976  58.4178305  67.5899267
  62.6051235  57.8742743  68.4009981  61.6054249  55.7363987  69.7078800
  61.7038536  55.0822783  68.8415432  62.5692368  55.9957695  70.1459408
  60.7779121  55.0222635  70.7786465  59.7702789  54.8855972  70.3860950
  61.2345695  54.0488243  70.9574938  60.7147169  55.5245352  71.7439651
  61.8577909  58.3869934  71.2938499  61.7955303  58.1197548  72.5254726
  62.7045012  59.2093945  70.7686615  62.5995350  59.5321083  69.8173761
  63.8336563  59.7160339  71.5648794  64.4699430  58.8827085  71.8628931
  64.6757460  60.6534052  70.6564283  64.0678644  61.4868355  70.3043318
  65.3842688  61.1863995  71.2904787  65.2421141  59.8395777  69.4754887
  64.4182062  59.6029186  68.8022327  66.0924768  60.8339596  68.6634779
  66.3646555  60.5573320  67.6449060  65.4795361  61.7351103  68.6451864
  67.0107222  61.0054159  69.2252016  66.0762358  58.6020899  69.7802353
  66.3045263  58.1389284  68.8203049  66.9970465  58.7974882  70.3298044
  65.4899311  57.8480434  70.3053665  63.4271479  60.4389429  72.8298187
  63.9542437  60.2219629  73.8943100  62.3882675  61.3171148  72.7186298
  62.0017815  61.4618063  71.7967796  61.7969322  62.1036339  73.8828993
  62.5193310  62.6490927  74.4901180  60.6945801  63.0018997  73.4856129
  59.8136711  62.4106216  73.2356453  60.3396463  63.5021877  74.3866348
  61.1236954  64.0458155  72.4903631  61.9605398  64.6723175  72.7990389
  61.3295603  63.4252071  71.6182613  60.0025034  65.0078630  72.0145130
  60.4515028  65.5740356  71.1984539  59.1732407  64.4053030  71.6439104
  59.5281887  65.8749437  73.1905937  60.1359987  65.9296179  73.9953756
  58.5001516  66.6657066  73.1475401  57.5916672  66.6490841  72.1899939
  57.7467060  66.0386181  71.4004374  56.8438816  67.3258686  72.1363163
  58.2386494  67.3997068  74.1739941  58.7879038  67.3478031  75.0200033
  57.3316431  67.8403187  74.1165590  61.1725235  61.1111116  74.7944832
  61.4665174  61.1212540  75.9848881  60.3281355  60.1262045  74.4425631
  60.0037766  59.9881506  73.4960794  59.8590136  59.0208006  75.3714418
  59.2428589  59.4441175  76.1646938  59.1047239  57.9731512  74.6466303
  59.7247267  57.5420570  73.8605881  58.7959290  57.1779203  75.3251219
  57.8315592  58.4573746  73.9726973  57.1065378  58.8308668  74.6958494
  58.0622864  59.0911722  73.1164408  57.1492529  57.2917795  73.2334948
  56.1900425  57.4287796  72.4443388  57.6921368  56.1820507  73.3940077
  61.0495758  58.4362030  76.0765409  60.9665775  58.2851696  77.2705889
  62.0979023  57.9872561  75.3436756  62.0276070  58.0821943  74.3406105
  63.2594681  57.3584032  75.8964539  63.0444860  56.4479494  76.4558887
  64.1099501  56.9192839  74.6999741  64.1953516  57.7102804  73.9549065
  65.5255461  56.5147400  75.1882076  66.1326885  56.2107229  74.3355322
  66.1053705  57.2048807  75.8010769  65.4615498  55.5522299  75.6957293
  63.3921242  55.7724905  73.9816809  63.3479500  54.9095869  74.6461773
  62.3558569  56.0771418  73.8352966  63.9260006  55.2669191  72.5876904
  64.9354219  54.8974419  72.7684021  63.3474159  54.4492435  72.1578598
  64.0159893  56.0359526  71.8204975  64.0275478  58.2589865  76.8790627
  64.3924141  57.8823566  77.9877186  64.3922758  59.4879770  76.4939308
  64.2777348  59.7124720  75.5158806  65.1598454  60.4111099  77.3657322
  66.0420561  59.8654604  77.7005148  65.4975128  61.2218428  76.7201376
  64.3362761  60.7563019  78.6150837  64.8390388  60.8021545  79.7369766
  63.0281401  61.0426855  78.4976530  62.6309919  61.0487938  77.5690317
  62.0239544  61.2125921  79.5858765  62.3261929  61.9687557  80.3104305
  60.7665110  61.8690300  78.9469481  60.4628754  61.1953497  78.1456614
  59.9669790  61.9438457  79.6840048  61.0392523  63.2567167  78.3670473
  61.8487406  63.2357407  77.6373959  59.7153473  63.8015270  77.7400255
  58.8918924  63.6451483  78.4368563  59.7260189  64.8401356  77.4094534
  59.4964790  63.2743168  76.8114519  61.4814425  64.2506170  79.4251204
  61.1678553  65.2629471  79.1702461  61.0596848  64.0700483  80.4138660
  62.5568676  64.1931152  79.5932341  61.7041874  59.9226093  80.4277420
  61.0554552  59.9083805  81.3966370  62.3476171  58.7487602  80.0460339
  62.8015947  58.9023352  79.1569805  62.2902870  57.3813534  80.6735516
  62.8279972  56.7155790  79.9984884  62.9213572  57.2570276  82.1165371
  62.5834751  57.9505491  82.8865719  62.5822544  56.3057756  82.5267029
  64.4720793  57.0762062  82.1683216  64.8247528  56.3618183  81.4244270
  65.0097942  58.0207300  82.0856190  64.9037361  56.3666105  83.4457684
  64.4785833  56.8854952  84.3049049  64.4311905  55.3855419  83.4938335
  66.3845015  56.1745167  83.5548496  66.6895914  55.2134657  83.4965324
  67.3466492  57.0919037  83.7135315  67.2477293  58.3943796  83.8630390
  66.3633394  58.7549162  84.1916180  68.0305099  58.8932037  84.2611980
  68.5408783  56.6619015  83.6502266  68.6794710  55.6703854  83.5168743
  69.2842770  57.3397732  83.7394047  60.8396578  56.7566109  80.6883335
  60.3869247  56.0254526  81.5894127  60.0444651  57.0709658  79.6887016
  60.4291010  57.6476431  78.9541245  58.7077236  56.5114689  79.4272900
  58.2685184  56.3011599  80.4024696  57.8592730  57.4324894  78.5868883
  58.2008266  57.5958204  77.5647545  56.8626022  57.0118761  78.4533405
  57.5695229  58.8235903  79.2026806  58.4485769  59.4626284  79.2863178
  56.5694094  59.5607662  78.2340479  56.9703579  59.4860268  77.2232294
  55.6693506  58.9461327  78.2189226  56.4661694  60.6337929  78.3954525
  56.9641113  58.6992884  80.6149483  55.9042692  58.4464788  80.6454372
  57.5204611  57.9648638  81.1973572  57.0292759  59.6737289  81.0990143
  58.7198925  55.2529526  78.5851002  57.7813673  54.4476414  78.6452007
  59.8384571  55.0166464  77.8883219  60.4905510  55.7872534  77.8560352
  60.0486660  53.8059664  76.9959354  59.3495083  53.0050564  77.2364092
  59.8022127  54.1325712  75.4635239  60.3425741  54.9984217  75.0808859
  59.9412823  53.2319736  74.8654604  58.4846687  54.6192980  75.5707216
  58.3486652  55.1904345  74.8111725  61.5449429  53.2412577  77.1793747
  62.5197744  54.0058756  77.2942972  61.6322947  51.9219828  77.3847246
  60.8644485  51.2775850  77.2611618  62.8140450  51.3616276  77.9188776
  63.7083578  51.9162226  77.6347494  62.7674294  51.4743042  79.4059229
  63.6716890  51.0870171  79.8754168  62.6269484  52.5148296  79.6986246
  61.5729284  50.7182789  79.9592733  60.2538443  51.1677933  79.9822617
  59.6699095  50.4705048  80.9736443  58.6474609  50.6638193  81.2628269
  60.5970573  49.6801233  81.6101074  60.3735542  48.9860392  82.3089600
  61.7533350  49.8372126  80.9576130  62.6978683  49.3758202  81.2053490
  63.0053806  49.9079609  77.4281645  62.0438242  49.1179228  77.1009731
  64.2551327  49.4303465  77.6642275  64.8324585  49.8829365  78.3584547
  64.6669436  48.0295134  77.4766254  63.9782619  47.5155592  76.8060398
  66.1007595  48.0410910  76.8511677  66.6734886  48.5904932  77.5983238
  66.2154293  48.4897947  75.8644485  66.6649246  46.3226700  76.7181015
  64.5370579  47.2965384  78.8084173  65.1117945  47.6345110  79.8223877
  63.6588955  46.3532305  78.8837576  63.0538225  46.2558699  78.0809450
  63.3031940  45.5522203  80.1321507  63.0304337  46.2368250  80.9352779
  62.1331692  44.6584702  79.9705172  61.8326283  44.3798447  80.9805393
  61.3013506  45.1870203  79.5048809  62.3388338  43.4786129  79.0780640
  62.1231842  43.9014626  78.2436228  64.4952393  44.7649145  80.6704235
  64.7023582  44.6336508  81.8718147  65.3175306  44.3804073  79.7272730
  64.9915409  44.5929909  78.7952662  66.5571690  43.5954428  79.8894310
  66.3717890  42.7152538  80.5050564  67.1719027  43.1257248  78.5490036
  66.5015268  42.4463558  78.0225468  67.2822523  44.0324020  77.9541349
  68.4716225  42.5487423  78.7273932  68.6431789  41.3249016  79.3447638
  69.9304914  41.1593151  79.4960737  70.4375315  40.2538729  79.7952080
  70.6004429  42.2095203  79.0318155  71.6037321  42.3245716  79.0152311
  69.6901035  43.0994606  78.4620047  69.9785471  44.0641737  78.0714607
  67.6333189  44.3855286  80.6351471  68.2531738  43.7609673  81.5065384
  67.7303600  45.6747675  80.4263496  67.0350552  46.0252285  79.7830582
  68.6517620  46.5987635  81.0553741  69.4982100  46.0750866  81.4996624
  69.1428709  47.4881840  79.9131870  69.7560740  48.2496214  80.3951550
  68.2876682  47.8282404  79.3291521  70.2100372  46.5956163  78.7756777
  68.0298710  47.4728394  82.2595310  68.8531828  47.9342222  83.1438732
  66.7133856  47.3697996  82.4791718  66.1843443  46.8126011  81.8236256
  66.0256338  47.9266882  83.5670853  66.5674305  47.7808762  84.5015812
  66.0028315  49.4802570  83.4060192  67.0569515  49.7545290  83.4473515
  65.5854940  50.0898504  82.0657349  64.5235014  49.8566628  81.9889641
  65.8006620  51.1533785  81.9622326  66.0871124  49.6204615  81.2194729
  65.2997637  50.2260494  84.5110416  65.8260107  50.0610113  85.4512215
  65.2630663  51.3020849  84.3410015  64.3000364  49.8185635  84.6614075
  64.6189547  47.3825598  83.9133644  63.6432838  47.7718449  83.3281517
  64.5007324  46.5074301  84.9135876  65.6713724  45.8505487  85.4923725
  66.1872911  46.4190865  86.2661266  66.3925314  45.5007172  84.7536945
  65.1735115  44.5956993  86.1039543  65.7215977  44.4377375  87.0327950
  65.1254177  43.7739992  85.3894043  63.7269163  44.9518061  86.4802551
  63.7436867  45.3669739  87.4879551  62.9698801  44.1687870  86.5235519
  63.2783031  45.9301805  85.4219437  62.7571630  45.3697443  84.6457767
  62.2175550  46.8601704  85.9146786  61.0437155  46.6880369  85.6034660
  62.6467323  47.8258944  86.7136669  63.6172295  47.7962065  86.9917965
  61.6994429  48.7134886  87.4291420  60.7149410  48.5228777  87.0019150
  61.6339064  48.4191704  88.9422417  61.7312431  47.3422718  89.0797901
  62.4519444  48.8925743  89.4851971  60.2911091  48.9116096  89.5246887
  60.2255821  49.9934816  89.4090939  59.4173908  48.4618473  89.0530586
  60.2349281  48.6371994  91.0408878  60.3332901  47.5542974  91.1167431
  61.0731030  49.1876268  91.4681911  58.8342237  49.0645456  91.4624596
  58.6595201  50.0086117  90.9463978  58.2625914  48.2766771  90.9719563
  58.6271334  49.1184092  92.9290295  57.7095795  49.4970942  93.1155777
  58.4197950  48.1632185  93.1834316  59.2859602  49.6273994  93.5008335
  61.9657421  50.1907635  87.1552277  63.0685091  50.6748867  87.3663616
  60.9259129  50.9356642  86.8691540  60.0166273  50.5040741  86.7853165
  60.8591795  52.3706007  86.6178036  61.6457367  52.9359961  87.1175575
  61.0118103  52.6802588  85.0716305  60.4936838  51.9349575  84.4681644
  60.6531334  53.6672878  84.7797012  62.5201607  52.6121044  84.6648788
  62.9486179  51.6344452  84.8855972  62.7342606  52.7112961  83.1542301
  63.8078308  52.6684713  82.9705715  62.1882629  51.9615269  82.5816536
  62.4091959  53.6242628  82.6552963  63.4134769  53.7011528  85.3038692
  62.9477930  54.6865892  85.2912998  63.5449791  53.4468842  86.3556099
  64.4163179  53.7265635  84.8775196  59.4830513  52.9423857  87.1991444
  58.5299778  52.1622992  87.3143196  59.3749619  54.1877317  87.5593281
  60.2111340  54.7539186  87.5779724  58.0199194  54.7114849  87.7418518
  57.6509428  54.3209028  88.6902237  58.1268167  56.2235498  88.0518341
  58.8859367  56.6013432  87.3669243  57.2454739  56.7910767  87.7530861
  58.5869026  56.5552235  89.4431400  59.4593811  55.9339619  89.6454334
  58.8286114  57.6135540  89.5412159  57.5355291  56.1573696  90.4776478
  57.8620100  55.5305672  91.4683342  56.3133764  56.5046597  90.3146839
  57.0561600  54.2364502  86.6689491  57.4188805  54.3813181  85.4999256
  55.7504177  53.8349628  86.9392014  55.1591253  53.6902142  88.2781887
  54.9276543  54.7078800  88.5926342  55.8200312  53.2974529  89.0508747
  53.9162254  52.8848171  88.1210136  53.0732250  53.5755539  88.1392574
  53.8442278  52.2102880  88.9741993  53.9818907  52.1996593  86.7475224
  53.0096292  52.0914602  86.2667942  54.5191574  51.2535572  86.8133640
  54.8719788  53.2260799  85.9481716  55.5431414  52.8402185  85.1808739
  54.0604258  54.3534517  85.3016567  53.7052202  55.3321362  85.9517574
  53.7651014  54.2501116  84.0067482  54.1111708  53.4275627  83.5337067
  52.9187202  55.1768208  83.1941795  53.2595444  56.1782360  83.4570694
  53.1626701  54.9397039  81.6329098  53.0990791  53.8968468  81.3222599
  52.1452951  55.6524658  80.8303165  52.1553755  56.7018557  81.1249161
  52.2432613  55.5163002  79.7533035  51.1608410  55.2373934  81.0463238
  54.5763350  55.3960085  81.2138748  54.6711731  55.8021212  80.2068138
  54.9745512  56.1292791  81.9151974  55.6218243  54.2693281  81.2819099
  56.6012716  54.5617485  81.6604328  55.3317118  53.5977650  82.0899582
  55.5292702  53.7067223  80.3529263  51.3937950  54.9913549  83.5558224
  50.8584166  53.8400030  83.4297371  50.7600117  56.0633039  84.0131760
  51.2213802  57.3543215  84.3218136  51.6148043  57.8895473  83.4576035
  51.9615793  57.1832466  85.1034355  50.0658369  58.2083321  84.7542000
  49.6181536  58.8479376  83.9935493  50.3348160  58.9387703  85.5172348
  49.1111612  57.1739864  85.2837086  48.1104517  57.5904465  85.1686096
  49.2954445  56.9502735  86.3344669  49.3198204  56.0230589  84.3270779
  49.1073084  55.0961304  84.8597527  48.4546423  56.1647224  83.0338478
  48.7969780  56.8614006  82.0679760  47.2841787  55.5303478  82.9766178
  47.0000076  54.8998928  83.7127304  46.3815212  55.6532288  81.8027973
  46.9150400  55.5102873  80.8631039  45.3177786  54.5859432  82.0048523
  45.7749844  53.7658739  82.5585175  44.4171190  54.9254656  82.5163555
  44.8907280  54.1635752  80.6210995  44.5977259  54.9643087  79.9420738
  45.7462978  53.6597061  80.1714134  43.7683868  53.1202602  80.5593967
  43.6218691  52.2602892  81.4427853  42.9703903  53.1850624  79.5872259
  45.7310629  57.0120430  81.6386032  45.3424549  57.2420835  80.4943275
  45.6843710  57.8595304  82.7030087  45.9765244  57.5175190  83.6073112
  44.8730373  59.0253735  82.7208233  44.9537802  59.6346045  81.8205833
  43.3425426  58.6360025  82.7602196  43.1534815  57.7797461  82.1127796
  43.0764484  58.3812284  83.7860775  42.5415373  59.8210478  82.2479439
  41.7710304  60.6254959  83.0286217  41.6490698  60.5274153  84.0972233
  41.1736774  61.6492605  82.3005104  40.6877899  62.4237490  82.7296638
  41.4488554  61.5159416  80.9715748  40.9429264  62.2175264  79.8258781
  40.3179836  63.0852652  79.9771404  41.3517189  61.7689228  78.5640764
  41.0917997  62.3548508  77.6948595  42.2989035  60.7005644  78.4715843
  42.7657557  60.4888391  77.5209856  42.7812910  60.0809288  79.6175671
  43.5482311  59.3338633  79.4758034  42.3040962  60.3683615  80.8628464
  45.2863789  59.9512148  83.8219261  45.5871725  59.5393229  84.8720741
  45.3186274  61.3106585  83.6852169  45.1069546  62.0780468  82.4880695
  44.1610098  61.7605782  82.0493126  45.9247017  61.9654036  81.7762470
  45.0361729  63.5864305  82.9830456  44.0324879  63.8999271  83.2701683
  45.4262590  64.3090868  82.2663116  45.7668304  63.6073732  84.2424488
  45.4547215  64.4201422  84.8982620  46.8322659  63.7725830  84.0822983
  45.5587101  62.1993351  84.7648811  46.4736223  61.8899488  85.2701664
  44.4183397  62.1084833  85.7999992  43.2651949  61.7921257  85.4196930
  44.7322273  62.3069477  87.0868969  46.0276985  62.7337646  87.5920963
  46.4357281  63.5403872  86.9830227  46.7742729  61.9396830  87.6048470
  45.7649326  63.1644773  89.0843201  45.3981113  64.1877365  89.1648197
  46.7143583  63.1620646  89.6197605  44.7203302  62.1475029  89.5738411
  44.2383766  62.4261808  90.5109501  45.2323008  61.1957979  89.7161198
  43.8097143  62.1062231  88.2880974  43.3740616  61.1123705  88.1853294
  42.6621342  63.1186342  88.2227135  42.7721739  64.2625952  87.8202629
  41.4756298  62.5672245  88.5097313  41.5856218  61.7592573  89.1057110
  40.2346659  63.0101204  87.9592800  40.3535700  63.1018734  86.8796825
  39.1812062  61.9706678  88.3117390  39.5974636  61.0364389  87.9348469
  39.1580844  61.9745636  89.4014835  37.7752495  62.2113323  87.7024746
  37.3625708  63.0950117  88.1892109  37.7012014  62.3211670  86.1871243
  38.0664444  61.4311028  85.6747913  36.6582370  62.4986601  85.9247875
  38.2571387  63.1475210  85.7442093  36.8621397  61.0576200  88.1439304
  37.0442820  60.0952673  87.6655960  36.9832444  61.0238171  89.2266560
  35.8337379  61.3144541  87.8899193  39.7782207  64.4131804  88.3508778
  39.2676401  65.2151442  87.5651169  39.8710728  64.6655416  89.6558762
  40.3595734  64.0014315  90.2393436  39.5278430  66.0076237  90.1940155
  38.5865235  66.3485336  89.7629738  39.3681312  65.9589529  91.7392540
  38.6029220  65.2058220  91.9272709  40.2954102  65.7002735  92.2504711
  39.1344905  66.9645166  92.0890331  40.5259514  67.0428991  89.6285820
  40.1252985  68.1733942  89.4357491  41.7975283  66.6936016  89.2704487
  42.0350504  65.7119274  89.2710590  42.9315472  67.5847769  88.8432217
  42.8862906  68.5311604  89.3821430  44.2718935  66.8658781  89.0844727
  44.3905830  65.8888960  88.6159420  44.9968958  67.5566769  88.6540508
  44.5234537  66.8668222  90.4296207  44.0845156  66.1040354  90.8131504
  42.8844261  68.0873060  87.4168491  43.5140848  69.0427399  87.0249939
  42.0867062  67.4021435  86.5688896  41.7574024  66.5118122  86.9138145
  42.1491909  67.5866079  85.1687145  42.8138113  68.3732176  84.8114777
  42.6038218  66.2621689  84.5855618  42.6977110  66.3080025  83.5005856
  43.5755444  65.9248972  84.9462700  41.4869642  64.8944807  84.9718761
  41.7735767  64.5783377  86.2378979  40.7797146  67.8472757  84.5058155
  40.7799149  68.2138538  83.3797073  39.6414065  67.7815962  85.1926613
  39.6803522  67.5378990  86.1720467  38.3133411  68.3612394  84.7521210
  37.6448560  68.6015654  85.5788326  38.4793282  69.3472528  84.3181515
  37.5914383  67.4712896  83.7404346  36.7635250  68.0486107  83.0443668
  37.9321814  66.1675835  83.4960556  38.6615586  65.7431364  84.0509987
  37.4273586  65.3486872  82.4461746  36.3786912  65.5833435  82.2636032
  38.0698061  65.8042479  81.0991383  37.7411294  66.8112040  80.8419991
  39.5480514  65.7520866  81.0215950  40.0113106  66.1464834  80.1171970
  40.0604486  66.2002897  81.8728733  39.7866464  64.6945906  81.1350632
  37.5059032  65.0455618  79.8882580  38.1364393  65.3715134  79.0610456
  37.6720190  63.9694595  79.9384403  36.4368558  65.1846218  79.7273254
  37.6518750  63.8630438  82.6786900  38.7770915  63.4993696  82.9785919
  36.6261244  63.0283117  82.4353123  35.3304553  63.3296633  81.8797112
  35.2886319  63.9825487  81.0078716  34.7164226  63.7481165  82.6771736
  34.6090436  62.0778894  81.4645004  34.9084544  61.8204880  80.4485226
  33.5260177  62.1813679  81.5311813  35.2118039  61.1702681  82.5213814
  35.0466251  60.1362753  82.2186089  34.7736526  61.3003778  83.5109234
  36.6903234  61.5772772  82.5135040  37.2243190  61.3624287  83.4391308
  37.4622488  60.9547138  81.3817215  37.7191162  61.5807438  80.3435707
  37.9370141  59.7202539  81.5709019  38.0609322  58.8924360  82.8022289
  37.1961331  58.2298803  82.7670383  37.9990625  59.5624256  83.6597729
  39.3393326  58.1117582  82.7251911  39.2637038  57.1563721  83.2444382
  40.1708412  58.7444830  83.0356121  39.4300508  57.8471231  81.2042522
  38.7095547  57.0446396  81.0461235  40.4577208  57.6162291  80.9237576
  38.8586688  59.1454268  80.6546497  39.6301842  59.9152088  80.6722546
  38.2407308  58.9581633  79.2579508  37.0999980  58.4459829  79.1383171
  39.0143919  59.3131876  78.2550430  39.8947549  59.7009277  78.5628176
  38.7675524  59.3422413  76.7995834  39.3788671  60.1444769  76.3862848
  39.2432356  58.0098534  76.3487530  38.7501240  57.3094273  77.0228052
  38.9257789  57.7995729  75.3274298  40.7700062  57.9312801  76.3525009
  41.5927935  58.5080385  75.3343105  41.1158323  59.0031195  74.5013571
  42.9936886  58.4454393  75.3980923  43.5744286  58.9450932  74.6368504
  43.6336327  57.8772163  76.5227032  44.7015190  57.9154587  76.6794014
  42.8255987  57.2923183  77.5298023  43.2977295  56.7059898  78.3042145
  41.4338779  57.3218107  77.4623013  40.9100819  56.8522596  78.2817888
  37.3327875  59.6252251  76.4558506  36.7497396  58.9799786  75.5619955
  36.7487407  60.7237005  76.9749594  37.2779965  61.1709642  77.7097654
  35.3556728  60.9323263  76.9514894  34.9968624  60.7468319  75.9390926
  34.5474529  59.9483585  77.8761005  34.9040675  60.0126123  78.9041042
  33.5575151  60.3770065  78.0322504  34.3467283  58.4574032  77.4775028
  33.9532590  58.3675146  76.4649773  35.3477812  58.0539894  77.3250151
  33.5503364  57.6204014  78.5049868  32.4608016  57.9879999  78.8842916
  33.9891529  56.4409781  78.8355637  33.6254358  55.9942818  79.6651840
  34.6685791  56.0319090  78.2101536  35.0179696  62.3842287  77.3035812
  35.6943679  62.9391003  78.1740522  33.9711285  62.9427052  76.7106533
  33.5115194  62.3565102  76.0285711  33.4804630  64.3263912  76.9171953
  34.2986202  64.9204016  76.5099192  32.2306442  64.6696663  76.0545874
  32.0412350  65.7430267  76.0656261  32.5519419  64.4588041  75.0345850
  31.0101914  63.7464905  76.4079094  31.2908578  62.6947975  76.4649487
  30.5528402  64.1014767  77.3314428  29.8624277  63.8659382  75.4299736
  29.7764635  64.9102545  75.1297808  30.0771308  63.3146191  74.5145178
  28.4675932  63.1383133  75.9032154  28.5102105  62.0549965  75.7904768
  28.3193183  63.4301376  76.9429064  27.2637272  63.4822226  75.1385498
  27.5383282  63.2122803  74.2048359  26.5039158  62.8676939  75.3937912
  26.9770980  64.4443607  75.2491474  33.2838106  64.7128677  78.4081364
  32.8483152  63.9002466  79.1899204  33.6655283  65.9220552  78.7714338
  34.0422845  66.9863701  77.8836346  33.2349610  67.4625301  77.3272133
  34.8382854  66.6432047  77.2227859  34.6191049  68.0704927  78.7903214
  34.1540813  69.0457392  78.6462975  35.6754541  68.2501554  78.5904551
  34.4013429  67.6580811  80.2726555  34.0032864  68.4198809  80.9429550
  35.3728533  67.4646044  80.7274437  33.6133718  66.3456392  80.1576328
  34.0855455  65.6366587  80.8377075  32.2164869  66.4704037  80.6177044
  31.3475347  66.7699385  79.7972107  31.9600391  66.2244558  81.8788719
  32.7445483  66.0726738  82.4966240  30.6542563  65.8509684  82.3664856
  30.1575923  65.3811169  81.5175629  30.6847548  64.7990704  83.5270023
  31.0827947  65.3570938  84.3745136  29.6964192  64.4384480  83.8120461
  31.4115500  63.4560204  83.1362629  32.1419406  63.6387634  82.3480701
  32.1114182  62.6736689  84.2834282  32.2981644  61.6799688  83.8762569
  33.1047964  63.0745697  84.4848633  31.5123487  62.6170015  85.1922703
  30.3582883  62.4718046  82.6222992  30.8124542  61.5002680  82.4274921
  29.5038772  62.3475170  83.2876015  29.9261856  62.8100157  81.6804886
  29.8149085  67.0724201  82.7518559  28.6275721  66.8839455  83.0307198
  30.3177333  68.3336687  82.7672577  31.2963128  68.4467220  82.5443172
  29.5195436  69.5690775  83.0151844  28.6941552  69.5404387  82.3038387
  28.8922668  69.6084023  84.4558716  28.2882833  68.7233019  84.6556282
  29.9594474  69.7727108  85.5101871  30.7070017  68.9798307  85.4854774
  30.4985642  70.7149172  85.4117012  29.4270277  69.7056770  86.4589405
  28.0815053  70.7474041  84.6608543  27.3169208  70.5830717  84.1040611
  30.3874397  70.7708502  82.6980877  31.4450669  70.6909513  82.1045208
  29.9988079  71.9977951  83.0044937  29.1639113  72.0757055  83.5675049
  30.7102060  73.2318926  82.6954842  30.9018421  73.1133318  81.6290379
  29.8012686  74.4678354  82.9149342  30.3449011  75.2762222  82.4259853
  28.8285232  74.3297052  82.4429321  29.6363068  74.8318005  84.2534256
  29.2392159  75.6993246  84.3598557  31.9920468  73.4864044  83.4614277
  32.2065735  72.9596949  84.5568752  32.9726291  74.2246151  82.9272366
  33.0111146  74.9121284  81.6649628  32.6515222  75.9175301  81.8839550
  32.3704720  74.3904543  80.9539509  34.4182205  74.7769594  81.2238407
  34.7460222  75.4663706  80.4457855  34.6031594  73.7555218  80.8913231
  35.2318501  75.0818491  82.4752235  35.2474928  76.1445904  82.7169704
  36.2366581  74.6598434  82.4557686  34.3411875  74.3553782  83.5592651
  34.8856640  73.4204721  83.6919117  34.2540002  75.0410843  84.9580669
  35.1066875  74.7486925  85.7431507  33.4025860  76.0643864  85.2894688
  32.7443027  76.3813972  84.5921326  33.3597398  76.7214346  86.6055584
  34.3602085  77.0688295  86.8634033  32.3339868  77.8979540  86.7003727
  32.0906281  77.9758024  87.7600098  32.7963948  78.7604809  86.2204552
  31.1497498  77.5888014  86.0553837  31.3123298  77.5735617  85.1093769
  32.9853749  75.6279325  87.6112270  33.6374640  75.4913616  88.5962105
  31.9075632  74.9026632  87.3324490  31.3877940  75.2061892  86.5213966
  31.2884498  73.8676786  88.1257343  31.0003161  74.2879486  89.0892982
  29.9377704  73.3995533  87.5372505  29.3805265  74.3041086  87.2936058
  30.1006293  72.9310656  86.5666389  29.0647531  72.4818182  88.4873962
  29.7003031  71.6309261  88.7326622  28.8605404  73.0426264  89.3994808
  27.7293754  71.9808054  87.7147293  28.0995035  71.6476822  86.7451191
  27.2072315  71.2076950  88.2784367  26.9149232  73.1682777  87.5629711
  26.4628005  73.5321045  88.3896065  26.5217471  73.7653589  86.4783192
  26.9719195  73.4705639  85.2949238  27.3951268  72.5590515  85.1942158
  26.4016008  73.8615704  84.5587540  25.6379867  74.7276831  86.4764309
  25.3856874  75.0667763  87.3937416  25.2906036  75.0453424  85.5828285
  32.2942924  72.6847029  88.2755089  32.2334814  72.0348072  89.2902756
  33.1569934  72.3287344  87.3040390  33.0960846  72.8593206  86.4468002
  34.2144060  71.2940788  87.4955177  33.7696385  70.4842806  88.0738831
  34.5587420  70.7572937  86.0359001  34.7753882  71.4928770  85.2612495
  35.5030894  70.2221966  86.1358070  33.5106683  69.9345636  85.3040028
  32.5458503  70.4399157  85.3469276  33.9607382  69.7347164  83.9148712
  33.1740952  69.1038418  83.5009766  34.0208244  70.6354809  83.3040428
  34.9238443  69.2323160  83.8247299  33.2985878  68.5467815  85.8644772
  32.7151871  68.6311054  86.7813396  32.7650380  67.8717518  85.1953316
  34.2929649  68.1145716  85.9763050  35.4421568  71.7578793  88.3090496
  36.4103723  71.0007572  88.5099888  35.4916358  73.0768347  88.6487961
  34.5769095  73.5027361  88.6042690  36.6490412  73.8709593  89.1841888
  37.4245095  73.1908464  89.5366001  37.3998094  74.6457005  88.0971241
  38.2927513  74.9338007  88.6518860  37.6894522  74.0112352  87.2594738
  36.7411709  75.7709265  87.5253201  36.1390376  75.3199339  86.9289589
  36.3489699  74.7454834  90.4486656  37.2843242  75.3874063  90.9251785
  35.1222420  74.7535610  90.9624863  34.4452500  74.1445494  90.5255699
  34.7164965  75.8542013  91.9396019  35.0632787  76.8265963  91.5898991
  33.1735134  76.0529041  91.8951225  32.9320335  76.8958473  92.5426006
  32.8307080  76.4373732  90.9345150  32.2841001  74.8529577  92.1691990
  31.2929082  75.1717997  91.8467426  32.5686502  74.0382242  91.5033531
  32.1498370  74.3551350  93.6329079  31.4367437  73.5346317  93.7127209
  33.1349635  74.0395069  93.9764309  31.6009617  75.2979851  94.5751476
  30.9973192  75.9880781  94.1514874  31.9612002  75.5434847  95.8007431
  31.4415336  76.6183043  96.3957310  30.8843350  77.2188854  95.8050251
  31.8409038  76.9725943  97.2531033  32.7802014  74.8651838  96.5523434
  33.2659221  74.1267300  96.0636139  33.1377292  75.2549124  97.4128056
  35.2539420  75.6454420  93.4069920  35.2456760  76.4788818  94.2415524
  35.6924963  74.4008398  93.6739731  35.5356407  73.6911201  92.9726887
  36.5348029  74.0564394  94.8367691  36.1296582  74.4558477  95.7665157
  36.4145136  72.5082970  95.0586128  36.8130231  71.9964504  94.1826534
  37.2320986  72.2987032  95.7483387  35.1277184  71.9639540  95.5068016
  34.2274570  72.6968098  96.0628986  35.0336194  70.7002640  95.3807163
  38.0173635  74.4897938  94.7405910  38.6586881  75.0844479  95.6123161
  38.5481167  74.2188549  93.5459614  37.9606223  73.6411142  92.9618645
  39.9165654  74.5468760  93.1321430  40.5957270  74.0342522  93.8133526
  40.1485872  73.9133501  91.7766857  39.6627760  74.4674015  90.9734917
  41.1947441  73.7565279  91.5138912  39.6047688  72.4719477  91.6831303
  38.2742667  72.1065903  91.6516590  38.1856441  70.7668161  91.4296913
  37.2273088  70.2694511  91.4546871  39.4121122  70.3268719  91.1195755
  39.6887398  69.4357347  90.7329845  40.3272915  71.4026165  91.1618900
  41.3940859  71.4206457  90.9944916  40.2471876  76.0269833  93.1886578
  41.3463688  76.3862705  93.6878300  39.2446709  76.8928385  92.8572178
  38.5738420  76.4415407  92.2518921  39.1539335  78.2751560  93.1258011
  39.8792958  78.8061905  92.5094032  37.7150941  78.7652969  92.7676582
  37.0043421  78.3832932  93.5004711  37.6912045  79.8549652  92.7801704
  37.4231458  78.4826899  91.7562294  39.4996810  78.7899160  94.5378208
  40.2422285  79.7524357  94.7089577  39.0141392  78.0443382  95.5363655
  38.2465124  77.4475765  95.2630043  39.2330480  78.3914900  96.9228268
  39.1929245  79.4800615  96.9615650  38.4360409  77.5123835  97.8484726
  38.4378815  77.9662657  98.8394833  36.9366956  77.4033546  97.6084900
  36.3767147  78.2425070  98.0212116  36.7661381  77.4318027  96.5322876
  36.6261601  76.4059687  97.9197598  38.9293385  76.1913538  97.9764652
  38.6816430  75.7110500  97.1830177  40.6766891  78.1347466  97.2975159
  41.1906767  78.9093637  98.0900574  41.4638376  77.2040224  96.5949631
  41.0486078  76.6527891  95.8575153  42.8527737  76.9372463  96.8159962
  43.1126499  77.0060730  97.8723240  43.1382513  75.5184841  96.2560654
  42.8353310  75.5280447  95.2090454  44.2056370  75.2976084  96.2537861
  42.4089718  74.3703032  97.0123863  41.3347816  74.4287395  96.8368912
  43.0224657  73.1196880  96.3820553  44.1007090  73.0624676  96.5311146
  42.5325727  72.2657681  96.8499470  42.8631544  73.2014942  95.3068638
  42.7395821  74.4098806  98.5223103  42.2410154  75.2417803  99.0197945
  42.4007702  73.4826994  98.9845276  43.7998486  74.5736408  98.7149620
  43.7991190  77.9168987  96.1644077  44.8125887  78.2886696  96.7456055
  43.4311867  78.3113098  94.9472618  42.6097727  77.9256296  94.5038223
  44.1979408  79.3191528  94.1192722  44.0643883  80.2479267  94.6739292
  45.6357622  78.7912083  93.8991451  46.1934614  78.8962936  94.8297501
  45.6084013  77.7336311  93.6366844  46.3934088  79.4873857  92.7580261
  46.3302946  80.7545948  92.6011086  47.2594166  78.8291025  92.0202255
  47.9485607  79.3419552  91.4890385  47.5268221  77.9349518  92.4063587
  43.4603453  79.5213890  92.8458691  42.9401875  78.6024380  92.2059822
  43.4187698  80.7351494  92.3579597  43.9288664  81.4437580  92.8656769
  42.8006268  81.0603619  91.0671043  41.7948103  80.6452084  91.0031605
  42.8129244  82.1297169  90.8563232  43.6498260  80.6099606  89.7968006
  43.0843782  80.3483486  88.7339306  44.9322653  80.3532124  89.9265862
  45.3061724  80.5681896  90.8398628  45.7082272  79.6818018  88.8438034
  45.3332090  80.0514126  87.8894138  47.1498203  80.2198124  89.0920258
  47.3273659  80.3969765  90.1527786  47.8670788  79.4761419  88.7447643
  47.3750162  81.1608696  88.5902309  45.6112051  78.1728172  88.8773155
  45.9961319  77.5536299  87.9165936  45.0950718  77.6295042  89.9702835
  44.7469330  78.1613207  90.7551765  44.8345089  76.1909008  90.0025749
  45.5050230  75.5747557  89.4035149  45.0444078  75.7742262  91.4480782
  46.0663843  75.9438658  91.7870426  44.4306231  76.4734411  92.0159435
  44.6398783  74.3385839  91.7883396  43.5624075  74.1747284  91.8058872
  45.2154922  73.2802391  90.7510376  44.7849846  73.3531952  89.7523212
  46.2831974  73.4966707  90.7156086  44.9563217  72.2465515  90.9799862
  45.1108885  73.9488983  93.2227707  46.1916828  73.8394022  93.1333447
  44.8113108  74.7773600  93.8646412  44.6804190  72.9648495  93.4083748
  43.4574747  75.8841419  89.3414783  43.1618500  74.8686790  88.6655331
  42.5000429  76.7681456  89.6187687  42.6829100  77.5427771  90.2405453
  41.2940741  76.8739700  88.8470173  40.7471085  75.9390783  88.9691257
  40.4618502  78.0651951  89.3145370  40.3711271  77.9312229  90.3924561
  41.0351801  78.9589357  89.0683079  39.0619206  78.0266905  88.6912060
  39.0322304  77.8793716  87.6116180  38.6157227  77.1818495  89.2158508
  38.2946086  79.3270540  89.0953445  38.7430310  80.3795528  89.4808578
  36.9772792  79.2558527  89.0273857  36.5011835  80.1430607  88.9480686
  36.4792633  78.4085560  88.7946415  41.6331673  76.9067430  87.2886086
  41.2147093  76.0923004  86.4968872  42.5059557  77.8515434  86.9438362
  42.9537678  78.4224367  87.6464367  42.9885244  77.9876709  85.5830002
  42.1041775  78.2475138  85.0011730  43.8343763  79.2021894  85.5177689
  43.4149551  80.0374889  86.0785389  44.7487068  78.9686251  86.0632515
  43.9661360  79.5652533  84.1141033  42.9491997  80.2404594  83.4252167
  42.0740366  80.6109333  83.9382935  43.0934668  80.3528404  81.9956017
  42.3408985  80.8334351  81.3880920  44.1831446  79.8712444  81.3437271
  44.3530416  79.8513269  80.2773571  45.2240753  79.2907906  82.0562077
  46.0638714  78.9658165  81.4599419  45.1429415  79.1479969  83.4333897
  45.9031677  78.6345434  84.0033245  43.6842155  76.7384911  85.0263214
  43.3211422  76.2643623  83.9648056  44.6552896  76.1693287  85.7006168
  45.0201750  76.6377735  86.5176392  45.3166151  74.8727798  85.3614998
  45.6916904  74.9146843  84.3389225  46.5320444  74.6707535  86.2477684
  46.1732960  74.3155575  87.2138023  47.2168827  73.8724709  85.9616756
  47.1555901  75.5647707  86.2426662  44.5294237  73.5602903  85.4195499
  44.8987103  72.6232624  84.7200394  43.4590054  73.4332037  86.2557411
  43.2597542  74.1758299  86.9106579  42.3934364  72.4437571  85.9943485
  42.8317213  71.4493513  85.9097481  41.4472151  72.4644041  87.2038078
  40.8351660  73.3642101  87.1417809  40.4288340  71.2387753  87.1904087
  39.5406508  71.3774967  86.5739822  40.9740925  70.3041649  87.0588970
  39.9977779  71.0310984  88.1697845  42.1351147  72.4734402  88.4610844
  42.7370358  73.2208395  88.4873009  41.6636372  72.6904535  84.7212601
  41.4625025  71.7615747  83.9261246  41.1535072  73.9050627  84.4553757
  41.4855528  74.6796989  85.0119495  40.2740812  74.2860126  83.3640289
  39.4505739  73.5720587  83.3495235  39.7761321  75.7837248  83.4054565
  40.5462313  76.4505577  83.7932491  39.6781707  76.0547686  82.3542500
  38.4291124  75.9220219  84.1304970  37.7533364  75.1131582  83.8527107
  38.6458683  75.7847071  85.1898670  37.9311132  77.3755598  84.0091133
  38.7168288  78.1160545  83.8594055  37.1990991  77.4183846  83.2026291
  37.1207666  77.8471899  85.2909088  36.2326813  77.2203875  85.3716564
  37.6869392  77.7821684  86.2200642  36.8619895  79.2898512  85.2399063
  36.3150811  79.6833181  85.9923553  37.6962519  79.8589563  85.2249718
  36.3096189  79.4316292  84.4063091  40.9538603  74.0120125  81.9697666
  40.2571726  73.4569311  81.1142635  42.2514057  74.4212437  81.8283558
  42.6419115  74.8603344  82.6498222  43.1573629  74.1792107  80.7051659
  42.7186680  74.6817207  79.8431110  44.5686626  74.9076462  80.9741783
  44.3607950  75.9743071  81.0586166  44.9327755  74.4973183  81.9160748
  45.5654335  74.6920443  79.8403883  46.5533400  75.0262976  80.1572895
  45.8113623  73.6478758  79.6471739  45.1833868  75.3158617  78.4251642
  44.2307997  74.9265957  77.7420521  45.8667088  76.3255787  77.9836893
  45.7561064  76.6163206  77.0227861  46.5816927  76.6916656  78.5959673
  43.3900213  72.6574183  80.3938103  43.2036495  72.1770239  79.2657375
  43.7949228  71.8135500  81.2988377  43.8508463  72.1255779  82.2577953
  43.8833332  70.3811264  81.1347485  44.6268892  70.1882458  80.3614330
  44.4429779  69.8631716  82.5439167  45.4065037  70.3595114  82.6595688
  43.7682819  70.1654768  83.3448505  44.6922922  68.3025312  82.5847340
  43.6887121  67.8869295  82.6753426  45.3849506  67.6806736  81.3212872
  45.5032110  66.6229200  81.5563774  44.7445440  67.7722979  80.4440212
  46.3913393  68.0869150  81.2200356  45.5270004  67.9588652  83.8883400
  45.5143833  66.8694019  83.9201069  46.5283012  68.3891201  83.8687515
  44.9876928  68.3969116  84.7282028  42.5606489  69.7277737  80.5493546
  42.5809765  68.9518356  79.5888329  41.4079571  70.0860357  81.1680508
  41.3949442  70.4511118  82.1096706  40.0828362  69.8430157  80.4989338
  39.9958062  68.7603378  80.4075909  38.8953733  70.1432800  81.4365101
  38.9867473  69.5985603  82.3762131  38.8510513  71.2118006  81.6472244
  37.6552057  69.7753859  80.7995224  37.4420238  68.9465189  81.2344170
  40.0085211  70.3815746  79.0448952  39.7657609  69.6364784  78.0791903
  40.2531528  71.6848326  78.8481569  40.3835487  72.2210550  79.6940660
  40.1643801  72.3601151  77.5325298  39.1465807  72.3528242  77.1424866
  40.4743862  73.8249016  77.7096748  39.6556592  74.1403961  78.3563995
  41.4828396  73.8817453  78.1194210  40.2884483  74.6703196  76.4439631
  40.9321547  74.3333101  75.6314564  39.2595553  74.4572592  76.1539936
  40.4112053  76.1959171  76.4836454  40.2334309  76.6364479  75.5026102
  39.6442723  76.5565729  77.1690893  41.7802429  76.5921497  76.8246603
  42.4789762  75.8634472  76.8540907  42.0447969  77.7975321  77.3334265
  41.2739182  78.8482475  77.4393272  40.3184271  78.9078236  77.1174812
  41.6549778  79.6812725  77.8647232  43.2834816  77.9529715  77.7939367
  43.7607574  77.0668411  77.7097845  43.7333775  78.8570309  77.8130245
  41.0387564  71.6043234  76.4785910  40.7084179  71.5133953  75.3288269
  42.1488857  71.0850143  76.9056988  42.4243402  71.3492680  77.8407907
  43.0425882  70.2192736  76.1440802  43.1619167  70.6621265  75.1552677
  44.3711185  70.0911379  76.8733644  44.2244005  69.4767141  77.7616549
  45.4883289  69.6419907  75.8951187  45.7246065  70.4105806  75.1592302
  46.3956738  69.3904686  76.4442682  45.1559925  68.7434196  75.3752899
  44.8326015  71.3997364  77.2167921  44.3352413  71.7409372  77.9636669
  42.5254250  68.8202429  75.8530378  42.5303268  68.3936167  74.6845865
  42.2401094  68.0376244  76.9139767  42.3638105  68.4562731  77.8247595
  41.7680454  66.6131115  76.8391562  42.3211527  66.1692667  76.0114050
  42.1875381  65.8753014  78.1764412  41.8918896  66.5453863  78.9837074
  41.6172361  64.9623060  78.3476114  43.6484241  65.5541039  78.3690262
  44.3147898  66.3953876  78.5595798  43.8384056  64.5438528  79.5806170
  43.3941221  65.1329041  80.3829479  43.4062910  63.5678053  79.3599129
  44.8896551  64.3473816  79.7912788  44.2232990  64.6918297  77.2966576
  45.2126503  64.2609930  77.4505138  43.5314751  63.8563728  77.1894121
  44.4464827  65.1150846  76.3172960  40.3018570  66.3148737  76.5318680
  39.8879170  65.1476049  76.4933586  39.4532013  67.3487806  76.3362694
  39.8280168  68.2855415  76.3820696  37.9806948  67.2033834  76.2189388
  37.5614429  66.7268038  77.1050549  37.2889614  68.5457706  76.2187767
  36.2489223  68.4048748  75.9245539  37.3298669  68.9547205  77.2283268
  37.7493811  69.4247007  75.2588367  37.6311255  70.3166056  75.5936861
  37.3995161  66.4963865  74.9538183  36.2292767  66.1870956  74.9633741
  38.2365751  66.1060143  73.9481401  39.2326784  66.1955595  74.0890980
  37.8094769  65.1839972  72.8545570  36.9387674  64.7138023  73.3115959
  37.4628639  65.9662771  71.6285801  37.0536828  65.2573633  70.9087753
  36.5851521  66.5662861  71.8688250  38.5745740  66.6466188  70.9873438
  38.6551356  67.5217915  71.6320753  39.4143867  65.9523535  71.0158777
  38.1196690  67.1351051  69.5500851  37.8338075  66.3290644  68.8743019
  37.2090864  67.7316570  69.4947195  39.1269469  68.0301905  68.9680672
  39.0210938  69.0344906  68.9516068  40.1707458  67.6242781  68.2946062
  40.3515196  66.3426924  67.9861832  39.7043085  65.6789589  68.3870220
  41.0207510  66.0126877  67.3054981  40.9795952  68.4878159  67.8100681
  40.9640980  69.4740915  68.0271339  41.8671656  68.1905413  67.4306631
  38.7249470  63.9597607  72.6893139  38.5054255  63.2732821  71.6474438
  39.5982409  63.6363697  73.5734320  39.5991564  64.1522455  74.4417477
  40.6641960  62.5664425  73.4853411  41.4721632  62.9333496  72.8523588
  41.1616707  62.2759295  74.8835802  41.8715048  61.4501762  74.9322653
  41.6176605  63.1667995  75.3154612  40.3266239  62.0555019  75.5485725
  40.1778936  61.2200785  72.9162216  39.2648244  60.6764746  73.4628296
  40.7494974  60.7723999  71.7663240  41.3986015  61.4089489  71.3263559
  40.2089548  59.6137810  70.9838247  39.1323853  59.6302748  71.1536169
  40.3974342  59.6211863  69.5059919  41.4148855  59.3118143  69.2668533
  39.3943238  58.7627459  68.8054323  38.3803391  59.1617918  68.8316584
  39.6678901  58.7997341  67.7509689  39.4180417  57.7246952  69.1370773
  40.1882410  60.8789396  68.8576698  40.9794950  61.3771677  69.0751123
  40.7150316  58.3199739  71.4694071  41.8782997  58.1473303  71.6259956
  39.8561835  57.3871517  71.9038200  38.3853555  57.6031923  72.1124125
  37.8373551  57.8831720  71.2127399  38.2515645  58.2763481  72.9592085
  37.8600740  56.2444782  72.4522638  37.4626970  55.8607912  71.5125942
  37.1960831  56.3512802  73.3100557  39.0479350  55.4286766  72.9522324
  38.9634705  54.3514776  72.8086901  39.3325830  55.6718206  73.9759302
  40.2245378  56.0356998  72.1909523  41.1069918  55.9631872  72.8266525
  40.5791807  55.3347540  70.7988739  39.6585369  55.1249456  70.0250387
  41.8306780  54.9602461  70.5016041  42.5017309  55.2129078  71.2129068
  42.3244143  54.0787029  69.4900513  41.4944363  53.5929489  68.9769363
  42.9999447  54.8824930  68.3293962  43.7615013  55.5446291  68.7413549
  43.7017965  53.9756966  67.2978115  44.1759205  54.6621180  66.5962934
  44.4668388  53.3835649  67.8000116  42.9582930  53.3491421  66.8051338
  42.0419073  55.8155727  67.6040506  41.6050434  56.4771843  68.3520603
  42.4685335  56.4863873  66.8583250  40.8711290  55.1198387  66.8397284
  40.4910994  54.2631102  67.3962402  40.0395489  55.7740927  66.5779543
  41.2137985  54.5322132  65.9880304  43.3690786  53.0435896  70.0788927
  44.2498589  53.4475231  70.8740187  43.2472134  51.7171288  69.7378826
  42.2533894  51.1629295  68.8487148  41.9693470  51.8612862  68.0614901
  41.4283991  50.8623409  69.4945860  42.9157162  49.9361467  68.2381487
  43.6460447  50.3512716  67.5436068  42.1183538  49.3048334  67.8460407
  43.5992765  49.4254065  69.5030403  44.3299007  48.6742163  69.2030287
  42.8188419  49.0180588  70.1457548  44.1251469  50.6604958  70.1598120
  43.9704657  50.4634571  71.2206364  45.5768538  50.8318710  69.8743963
  46.0508680  51.2664795  68.8172102  46.3698959  50.6261921  70.9247446
  46.0206938  50.2743530  71.8047285  47.8366995  50.6328821  70.8221865
  48.1994009  51.6513062  70.6830359  48.4302950  50.1112366  72.1836281
  47.9735708  50.6951952  72.9826880  48.1807041  49.0570688  72.3042154
  49.9488258  50.2273703  72.2830868  50.3950787  49.7928572  71.3885689
  50.1995564  51.2808657  72.4071312  50.5907393  49.3743467  73.4360552
  51.3128376  48.3968353  73.1410885  50.5591822  49.7169971  74.6666527
  48.2824945  49.6847153  69.6380901  47.9021120  48.5262775  69.4909334
  49.2815399  50.1803398  68.8033581  49.5901537  51.1384535  68.8862610
  49.8247576  49.2850828  67.7013874  50.0086927  48.2355118  67.9308891
  48.7998343  49.2125082  66.6206837  47.8623819  48.8539457  67.0457935
  48.6213923  50.2084446  66.2152529  49.1764593  48.2928705  65.3960991
  49.8656464  48.8548756  64.3102598  50.1043558  49.8940277  64.4822550
  50.3244162  48.0372906  63.2569933  50.9342337  48.4989309  62.4944925
  50.1401806  46.6254139  63.2578468  50.6061459  45.8217525  62.2590399
  50.9884977  46.3991022  61.5941477  49.4878101  46.0938072  64.3814135
  49.3339586  45.0251436  64.3551016  49.0134668  46.8520164  65.4605484
  48.4857893  46.3449812  66.2548208  51.1682034  49.8718786  67.0876408
  51.2267017  51.0506773  66.7040443  52.2318459  48.9894199  67.0947838
  52.0418262  48.0507135  67.4154472  53.5837173  49.3761539  66.7535686
  53.5655451  50.3773594  66.3230371  54.4552565  49.5290899  68.0747700
  54.7021770  48.5744381  68.5392761  55.4409838  49.8691940  67.7573299
  53.9224291  50.5402374  69.0538263  53.3085871  51.2623787  68.5154819
  53.2018661  49.8994255  70.1525688  53.8706112  49.2903185  70.7607365
  52.6474428  50.6110191  70.7644129  52.4916601  49.2679214  69.6187878
  55.0690699  51.1680984  69.7570181  55.8227634  50.4168320  69.9929094
  55.5567312  51.7911148  69.0072584  54.8111916  51.7844296  70.6182623
  54.2867947  48.4607887  65.6499672  55.4773521  48.5410595  65.3788376
  53.4277487  47.6797056  65.0520372  52.4363089  47.8600979  65.1199198
  53.7545872  46.5772867  64.2007065  52.7834320  46.1417627  63.9655924
  54.5407534  46.9697523  62.9500914  54.1079903  47.9193783  62.6353979
  55.5772066  47.1896219  63.2060671  54.3769026  45.9006596  61.8874216
  54.9869013  45.0297785  62.1273518  53.3537388  45.5251312  61.8723917
  54.7268772  46.3354254  60.4727554  54.3018198  47.3075056  60.2227831
  55.7990789  46.5195942  60.4052448  54.3048620  45.3522778  59.4663429
  54.7549534  45.6680679  58.5251760  54.7281218  44.4107342  59.8162699
  52.8253126  45.1495647  59.5227957  52.5789452  44.3952417  60.1476145
  52.2651672  45.9745169  59.6834087  52.5635672  44.8577881  58.5919571
  54.3433380  45.3192472  64.8678493  55.5231476  45.0756121  64.9439335
  53.4130144  44.4072676  65.2165365  52.4422693  44.6845627  65.1872396
  53.7809992  43.0223227  65.6824541  54.3216133  43.1722641  66.6169882
  52.5122070  42.1572685  65.9647369  51.9181108  42.0913887  65.0532484
  52.7568960  41.2418509  66.5034819  51.6308975  42.7596760  67.0873547
  52.1162415  42.7730560  68.0632448  51.4030075  43.7914276  66.8196630
  50.3009892  41.9406796  67.3284197  49.9851322  40.9851360  66.5813923
  49.5811653  42.2442532  68.3761454  48.7938643  41.6485262  68.5891533
  49.8662567  43.0346203  68.9366293  54.7405100  42.3339510  64.7116089
  54.3281174  42.1623468  63.5859013  55.9148264  41.8627167  65.1782370
  56.0874510  42.0361662  66.1581469  56.9927216  41.3924551  64.3484783
  56.8989563  41.9186640  63.3985233  58.4131622  41.6032839  65.0794601
  58.4553719  42.6490402  65.3839588  58.4583473  40.7312584  66.3340473
  58.2838631  39.6673012  66.1738873  59.4078684  40.9046507  66.8404579
  57.6342344  40.8143377  67.0425987  59.5725346  41.2323141  64.0623188
  60.4989529  41.0298061  64.5997524  59.3372631  40.2199697  63.7338257
  59.8305368  42.2655249  62.9186773  58.8903952  42.5645018  62.4551725
  60.3086901  43.1416130  63.3567905  60.4856348  41.8350792  62.1612740
  56.7463255  39.8868060  63.8988161  56.2583494  39.1347909  64.6914959
  57.1596050  39.4320607  62.7123022  57.3539162  40.1910877  61.4757109
  58.3654976  40.5872679  61.3871479  56.6568089  41.0254288  61.3981485
  57.2302389  39.1676545  60.2934361  57.7563381  39.4854045  59.3932390
  56.1716223  39.0885520  60.0461149  57.7181435  37.9143405  60.9599733
  58.8009310  37.8174496  60.8807182  57.2463274  37.0477223  60.4968739
  57.1336889  38.0106187  62.3835468  56.0837746  37.7241635  62.3224735
  57.9536772  37.0206046  63.3204794  59.0260077  37.3453307  63.8017082
  57.3750782  35.8366394  63.6349344  56.4995337  35.5952382  63.1930590
  58.0483866  34.8597312  64.4971180  57.8887653  35.2838874  65.4884338
  57.1784639  33.6280990  64.5224380  56.1389971  33.8600230  64.7544336
  57.3497105  33.1174541  63.5748005  57.6664019  32.6649022  65.5900669
  58.4960508  31.8163991  65.3128958  57.0932817  32.6582074  66.7741013
  57.3939514  31.8851089  67.3503113  56.3745880  33.3396459  66.9721508
  59.5002651  34.5163703  64.1746092  60.4285240  34.5299411  64.9732256
  59.8330736  34.4684815  62.8620005  59.1082239  34.3996024  62.1620369
  61.2137222  34.1332173  62.3161745  61.4223385  33.1816077  62.8050756
  61.2375402  33.8395023  60.8633995  62.2472763  33.5189772  60.6069040
  60.6188965  32.9642916  60.6649351  60.7099676  34.9660277  60.1570082
  60.6181622  34.8082447  59.2145252  62.3243666  35.1318860  62.6695728
  63.5531664  34.8233080  62.6945019  61.8964672  36.3270617  63.0967760
  60.9105158  36.5030098  62.9662371  62.7804947  37.5182724  63.3027506
  63.7947178  37.2524643  63.0047607  62.3524904  38.5363102  62.3271656
  61.3208914  38.8529539  62.4809313  62.8875780  39.4567895  62.5606298
  62.6368618  38.0144358  60.6272602  62.0414877  36.8261623  60.7630301
  62.9252005  37.9327583  64.7555304  63.5586452  38.9645219  64.9546814
  62.2444582  37.2278380  65.6727123  61.6047859  36.4902425  65.4141188
  62.2475529  37.6556706  67.0868969  61.7791796  38.6389685  67.1301031
  61.4354420  36.6699934  67.8971720  61.8326378  35.7145071  67.5545597
  61.6641760  36.6047573  69.3898106  61.0474300  35.8082008  69.8060131
  62.6858711  36.2344241  69.4740200  61.5629673  37.5844574  69.8567677
  59.9030209  36.8368292  67.6027775  59.7594213  37.4659872  66.7243481
  59.5221043  35.8190608  67.5182152  59.2888832  37.3020387  68.3738279
  63.6727190  37.9425812  67.6149654  64.5422935  37.1049976  67.3083019
  63.8633871  39.1139340  68.2679892  63.0740166  39.7239876  68.4255743
  65.1056528  39.5443106  68.9011574  65.7442331  38.6919665  69.1331625
  65.9510231  40.3360558  67.9992962  65.9538221  39.9020791  66.9994211
  65.4381990  41.2641954  67.7469492  67.2517776  40.6432390  68.4045124
  67.7083349  41.1461973  67.7261353  64.9036741  40.3208971  70.2467346
  63.7796259  40.5132341  70.7350636  65.9148455  40.8999062  70.9064054
  66.7886734  40.9227514  70.4004288  65.8874655  41.6326141  72.1803904
  64.8813677  42.0257282  72.3264456  66.1645889  40.9678698  72.9985666
  66.9813013  42.7486181  72.1924162  67.2263575  43.2885408  71.1119652
  67.5664949  42.9957581  73.3445072  67.4449396  42.3287582  74.0931320
  68.5316420  44.0642738  73.6341190  67.9538059  44.9838352  73.7269402
  69.1386843  43.7203646  74.9995041  69.3411827  42.6493931  75.0105524
  68.3733368  43.8748074  75.7600880  70.4295588  44.9678278  75.3499746
  69.5868683  44.3663406  72.5820589  70.3741693  43.4962177  72.1982574
  69.6447897  45.6365728  72.1976233  69.2419910  46.3233185  72.8191042
  70.5384493  46.1358690  71.1481476  71.3240051  45.4251671  70.8914089
  69.6605778  46.4397192  69.9551582  68.8386822  47.1286821  70.1498747
  70.2822351  46.9499588  69.2194223  69.0680027  44.8746681  69.2444324
  68.2715988  44.6726513  70.2979231  71.2021780  47.4528265  71.6597414
  71.7906094  48.1527805  70.8084011  71.1813498  47.6832342  72.9389811
  70.7154226  46.9838381  73.4992218  71.5648365  48.8871574  73.7038422
  70.9248972  49.7656155  73.6208200  71.3713646  48.5213470  75.1826143
  71.9389200  49.1676760  75.8521223  71.8122387  47.5260401  75.2382898
  69.6191263  48.5664654  75.5713558  73.0028725  49.2830801  73.2728624
  73.2947826  50.4899502  73.1494951  73.9128208  48.3019972  73.0927944
  73.6611748  47.3358727  73.2456923  75.2019453  48.5433054  72.4505997
  75.7012272  49.2420959  73.1217957  75.8954668  47.7023888  72.4511957
  75.1466942  49.3258095  71.0661840  75.6838274  50.4501486  71.0772610
  74.5136976  48.8523197  69.9815178  73.9294243  48.0425787  70.1333284
  74.4319439  49.5564699  68.7253189  75.4488468  49.9152756  68.5663271
  74.0349817  48.5954666  67.5134230  74.7717571  47.7928591  67.5464392
  73.0176449  48.2694912  67.7299023  74.1122866  49.2418766  66.1406994
  75.1864719  49.1892529  65.3251314  76.1247778  48.7012100  65.5437565
  74.8954678  49.9568748  64.1856670  75.5517387  49.9792671  63.4182644
  73.5777855  50.4711437  64.1649628  72.8156185  51.3123560  63.2854128
  73.2446432  51.7529202  62.3975801  71.4551258  51.6381025  63.5814047
  70.8602858  52.0314264  62.7703190  71.0054684  51.2678814  64.9122572
  69.9912405  51.4834642  65.2143574  71.8151712  50.5541801  65.8328104
  71.4532137  50.1947975  66.7847776  73.1167126  50.1098585  65.4771662
  73.5240841  50.7973337  68.7988234  73.7516499  51.7148781  67.9865980
  72.5301647  50.8437490  69.6768475  72.2554779  50.0749397  70.2714682
  71.7848396  52.0800161  69.8671865  71.4654875  52.3353243  68.8567781
  70.5736351  51.7570400  70.6887341  70.8631992  51.2037039  71.5820837
  70.0807571  52.6688433  71.0260630  69.5260477  50.9124279  69.8690462
  70.0119352  50.1697731  69.2362165  68.4493971  50.2112913  70.6538343
  67.8403282  49.5157337  70.0764751  68.9054489  49.7115612  71.5084648
  67.8630066  50.9954691  71.1326981  68.7932110  51.9114494  68.9741755
  68.6259222  52.8286648  69.5388269  69.3411827  52.1544933  68.0638123
  67.8420877  51.5048695  68.6304283  72.7034950  53.2497787  70.3746605
  72.7522564  54.3280888  69.8089933  73.5501099  52.8785181  71.3876438
  73.5302544  51.8987989  71.6323042  74.3795633  53.8848686  72.0681000
  73.8569498  54.8055983  72.3273945  75.0331545  53.4361506  73.4057236
  75.8209515  52.7271605  73.1511402  75.6650877  54.6454525  74.1860008
  75.9755468  54.2105579  75.1360464  76.4632940  55.1574421  73.6485672
  74.8765326  55.3666544  74.4008207  74.0257502  52.9216099  74.2697525
  73.7727261  52.0544147  73.9448690  75.5246925  54.2957306  71.1797810
  75.7754374  55.4795742  71.0743141  76.0580969  53.3773899  70.3601599
  75.7248592  52.4436378  70.5529451  77.0304108  53.7126684  69.3398094
  77.8668118  54.1544628  69.8814297  77.4662495  52.3733950  68.7401485
  77.9356813  51.7856407  69.5289993  76.6709900  51.7661047  68.3078814
  78.4827089  52.5638723  67.5791073  78.9379311  51.5936279  67.3803663
  77.9575396  53.0096626  66.7343712  79.6993017  53.4971333  68.0314541
  79.3739033  54.5327377  68.1301689  80.0734901  53.1877756  69.0073633
  80.7885647  53.5128593  66.9220924  81.0702229  52.4781179  66.7269468
  80.2668381  53.8231945  66.0167742  81.9873142  54.3573856  67.0612621
  81.6782093  55.3186941  67.0822620  82.3449802  54.1574240  67.9844093
  82.6776791  54.3544626  66.3240433  76.4559937  54.6882343  68.2939672
  77.2034836  55.5584431  67.8518248  75.1718330  54.5172501  67.8492832
  74.7468567  53.6169195  68.0192852  74.5373106  55.3945637  66.8307829
  75.2512646  55.4644823  66.0101271  73.3966970  54.5708561  66.1437273
  72.6132298  54.3426609  66.8663645  72.8907299  55.3125715  64.9361610
  73.7261963  55.5067348  64.2635679  72.1525097  54.6871471  64.4341898
  72.4067974  56.2531090  65.1994085  73.8410902  53.3496380  65.6274223
  73.8167095  52.7704573  66.3926363  74.2842197  56.8477392  67.2665691
  74.7161007  57.6956034  66.5713930  73.5998678  57.0663786  68.4432697
  73.1420660  56.2347269  68.7880564  73.4269047  58.4027863  69.1065025
  73.0275011  59.0577888  68.3322001  72.4112225  58.3175611  70.3391981
  71.5058279  57.9410458  69.8631763  72.8058290  57.3567963  71.4422750
  72.0817327  57.4052000  72.2555637  72.7446127  56.3229799  71.1022949
  73.7674236  57.6346779  71.8738127  72.0082426  59.7115135  70.8354664
  71.4135075  60.1818705  70.0524330  71.3777924  59.5630217  71.7121553
  72.9078341  60.3072166  70.9903049  74.7097445  59.1244650  69.5076180
  74.7735167  60.3434849  69.3480110  75.8113003  58.4299564  69.8668718
  75.7144260  57.4531889  70.1048613  77.1208000  59.0027380  70.0306320
  77.1628761  59.8733330  70.6851530  78.0473804  57.9583025  70.6885576
  78.0456543  57.0118427  70.1478958  79.0721464  58.3286238  70.6600952
  77.7327776  57.8708744  72.2244883  77.7929592  58.8832712  72.6239061
  76.6793633  57.5970173  72.2829437  78.7269211  56.9341612  72.9841900
  78.5249472  56.9016075  74.0548182  78.5538244  55.9797955  72.4868727
  80.2234077  57.2264481  72.7500200  80.5192566  56.7145872  71.8342829
  80.3455162  58.2909107  72.5497103  81.0611534  56.9690752  73.9938593
  81.1147499  55.9679317  74.1160965  82.0056248  57.3101377  73.8854742
  80.7058620  57.4489880  74.8084497  77.6709461  59.5206308  68.7361431
  77.8820419  60.7088614  68.6803818  77.8884888  58.7142515  67.6501703
  77.5932598  57.7599335  67.7992153  78.2455921  59.2156887  66.2672329
  79.2591238  59.6054363  66.3618469  78.1117678  58.0142403  65.3342724
  77.1798658  57.5081778  65.5863857  78.1138468  58.3787727  64.3070364
  79.1735363  56.9701529  65.5974483  79.2136049  56.7813492  66.6702271
  78.9835405  56.0260582  65.0868654  80.6001949  57.4205494  65.2734041
  81.6025829  57.2593594  65.9742832  80.7353306  58.0995989  64.2242193
  77.3712158  60.3429127  65.7756090  77.8844070  61.3051891  65.2183390
  76.0519314  60.3263283  66.0705471  75.6573677  59.5542240  66.5885067
  75.1565456  61.4499712  65.6427097  75.3050089  61.7361832  64.6014881
  73.6705780  61.0638905  65.8709478  73.5502863  61.0425472  66.9540787
  72.8105450  62.1206236  65.2622032  73.1230688  62.3193741  64.2370558
  71.7481041  61.8917418  65.3454590  72.9723549  63.0624294  65.7865381
  73.3799553  59.7786474  65.3584051  73.8711739  59.0821886  65.8002853
  75.4541779  62.7196217  66.3837004  75.3898478  63.7860632  65.7345915
  75.8529091  62.6362753  67.6880360  76.1087418  61.7825603  68.1632423
  76.4162397  63.8077116  68.4180927  75.6703806  64.5917702  68.2874966
  76.5684319  63.4695387  69.9501419  77.3948479  62.7773237  70.1112986
  76.8440437  64.6807766  70.7986546  75.9803772  65.3383589  70.8974934
  77.1006918  64.3143702  71.7926264  77.6646233  65.3662252  70.5867243
  75.4125357  62.9211330  70.3983736  75.3205252  62.0344448  70.0421143
  77.7529955  64.2628860  67.8586864  77.9751301  65.4180908  67.6283884
  78.6339903  63.3031893  67.8227949  78.2351542  62.3961115  68.0183649
  80.0012398  63.4195900  67.4247742  80.0242519  63.9078045  66.4504957
  80.9230137  64.3936348  68.2883835  81.9191074  64.4414520  67.8483820
  80.6037807  65.4312611  68.1907701  80.8878899  64.0379524  69.8105001
  79.9146032  64.3523359  70.1873207  81.0059166  62.9733086  70.0122499
  81.8607140  64.8102903  70.6420088  81.5926361  65.8641100  70.5665159
  81.8863010  64.3969631  71.6502762  83.2527447  64.7273731  70.2185678
  83.6830521  65.5691147  69.8630190  83.9302158  63.6027288  70.3299713
  83.5189247  62.4117088  70.6209898  82.5549507  62.1907759  70.8260107
  84.1398811  61.6173458  70.6801605  85.1474190  63.7031841  70.0886250
  85.6554604  64.5744085  70.1430845  85.7331371  62.8971291  70.2538967
  80.7147408  62.0931005  67.2941303  80.7222366  61.2362957  68.2232189
  81.3928795  61.8622684  66.1679792  81.3060856  62.5693846  65.4520512
  82.1706104  60.6114578  65.9433556  81.4086723  59.8331356  65.9013319
  82.7901173  60.6536102  64.5706940  81.9704437  61.0468149  63.9693356
  84.0268707  61.4870310  64.3529510  83.9350510  61.7915869  63.3103991
  84.0106964  62.3468733  65.0226593  84.9579144  60.9537363  64.5449400
  83.1506252  59.3514395  64.1824532  82.3224068  58.8760519  64.0841818
  83.2415867  60.2670288  66.9830084  84.0083504  61.1510611  67.4430752
  83.4290314  58.9751101  67.2767305  82.7499676  58.3595419  66.8524075
  84.1806412  58.4222031  68.3729935  85.1404667  58.9385080  68.3569288
  83.5710621  58.9351797  69.7666788  83.5037327  60.0219965  69.8156118
  82.5816631  58.5035419  69.9179411  84.3774414  58.3899689  70.9801006
  84.1749382  57.3190784  70.9632778  85.4468727  58.5263538  70.8194256
  83.9398575  58.8574648  72.3333406  83.7898540  60.0949574  72.5658703
  83.7401295  57.9522038  73.2398987  84.3414307  56.9110680  68.3754730
  83.4052849  56.2174034  68.7523174  85.4615116  56.3825989  67.9075146
  86.5620422  57.0868921  67.2477627  87.0801640  57.6550245  68.0203390
  86.2127686  57.8382587  66.5395546  87.4489498  56.0373259  66.7022943
  88.2891560  55.8501768  67.3709679  87.9242420  56.2601519  65.7470274
  86.6143417  54.7469854  66.5812731  87.3040962  53.9135885  66.7146540
  86.1280537  54.7226858  65.6060648  85.5930805  54.9221945  67.6986217
  84.6742439  54.4472647  67.3547125  85.9662533  54.1924429  68.9797688
  86.5969276  53.1802511  68.8377571  85.5267906  54.6746397  70.1223278
  84.9447060  55.4966974  70.0481367  85.8286095  54.1907501  71.4613295
  86.5860367  53.4252214  71.2929058  86.4669609  55.3532076  72.2667265
  85.6943703  56.1082363  72.4121189  86.9121361  54.8367834  73.6261082
  86.0516644  54.5469713  74.2292023  87.4623775  53.9040136  73.5025358
  87.5154400  55.5936432  74.1273928  87.6016617  56.1036587  71.5081692
  87.3782539  56.2205124  70.4477262  87.8741264  57.0312214  72.0116425
  88.8703156  55.2481890  71.4821005  89.6157932  55.5747366  70.7570219
  89.4491673  55.2322102  72.4055624  88.6676788  54.1961145  71.2816572
  84.6985149  53.4759617  72.2228479  83.8625622  54.2035580  72.7464724
  84.6406746  52.1579456  72.3398113  85.2880764  51.6745949  71.7337227
  83.6192989  51.3136721  72.9887009  83.9841938  50.2866602  73.0027819
  83.3328915  51.7573786  74.4099379  84.2581749  51.7662144  74.9860239
  82.9797459  52.7884197  74.3915558  82.3673058  50.9389114  75.0944424
  82.2588730  49.7058964  74.9677420  81.5848541  51.5116405  75.9547424
  80.8775616  50.9389067  76.3927078  81.7295265  52.4850368  76.1820507
  82.3143387  51.1406851  72.2106791  81.7243958  52.0897532  71.6646481
  81.8362522  49.8583174  72.1402884  82.3466396  49.1279984  72.6159334
  80.5845928  49.4719410  71.4449120  79.9903822  50.3600073  71.2296104
  80.7605267  48.7754440  70.0540257  80.8008862  47.6870394  70.0970840
  79.5904493  49.0758562  69.1070747  79.5907927  50.1487637  68.9147997
  79.8195839  48.4988594  68.2111502  78.6422729  48.7026072  69.4940472
  82.0470715  49.1973782  69.4269705  82.7091312  49.2385960  70.1209307
  79.6894169  48.5966969  72.2970819  78.8241959  47.8346443  71.7674589
  79.8669672  48.5856724  73.5844803  80.4722691  49.3114138  73.9408636
  79.0806198  47.7800179  74.5570469  78.1746340  47.3383760  74.1420174
  79.9701214  46.7089415  75.1444530  80.7470512  47.0652103  75.8208752
  79.2514324  45.6332922  75.9137058  78.5208035  45.0549507  75.3482103
  79.9582672  44.9796152  76.4247704  78.5828590  46.0910559  76.6427946
  80.6653214  45.9697437  74.1254520  81.5709496  46.2855911  74.0842676
  78.5506868  48.7214947  75.6551456  79.2634392  49.1984463  76.4841032
  77.2404575  48.7635279  75.6925631  76.6987801  48.0643225  75.2049112
  76.4706993  49.7529221  76.4998865  77.0162964  50.0649643  77.3904228
  76.2033796  50.9679413  75.6751919  75.5288076  50.6454802  74.8820543
  75.5912447  51.6401911  76.2764168  77.4581766  51.6154480  75.0716257
  78.0938148  52.6044226  75.8364058  77.7588177  52.6224136  76.8629789
  79.0534496  53.4769821  75.3119326  79.4119740  54.2033529  76.0262489
  79.5205069  53.2952595  73.9843941  80.4100037  54.1761541  73.5076189
  80.5659294  53.7618876  72.6557541  78.9046907  52.2398567  73.1958723
  79.2792606  52.1412563  72.1877193  77.8698540  51.4183664  73.7193060
  77.3335409  50.7153082  73.0992413  75.1075888  49.1892767  76.9387054
  74.6973610  48.1247187  76.3568258  74.4443274  49.8352528  77.8854418
  74.8037291  50.7233572  78.2051420  73.1565094  49.4231653  78.4653616
  72.8009462  48.5790014  77.8745461  73.3535910  49.2680693  80.0080204
  73.9578772  50.0773764  80.4178524  72.4027777  49.2615652  80.5409527
  73.9685488  48.0081367  80.1054764  74.9159813  48.1629324  80.1092911
  72.1374321  50.5926037  78.2302904  72.5925684  51.7044735  77.9380608
  70.8523703  50.3409290  78.4509182  70.4587412  49.4230175  78.6012554
  69.8630857  51.4599895  78.3839989  69.7252703  51.7880726  77.3537254
  68.4987640  50.8780479  78.8603067  68.2632637  50.1786852  78.0581045
  68.5613489  50.2572680  79.7540760  67.4979687  52.0540762  78.9686823
  66.8668461  52.5326872  77.8291607  67.1301126  52.0519400  76.8985844
  65.9248495  53.5976744  77.8759432  65.5627489  54.0339851  76.9567490
  65.4559660  54.0438366  79.1206598  64.4012880  54.8558331  79.2714834
  63.6845493  54.4859076  78.7508631  66.1093283  53.5477543  80.2884769
  65.8463860  54.0053177  81.2307644  67.1741962  52.6472092  80.1685333
  67.7866840  52.3869419  81.0191345  70.2696323  52.7783012  79.0543842
  70.0400352  53.7994194  78.4776545  70.8361959  52.6865339  80.2599144
  71.0199261  51.8017292  80.7109928  71.1657619  53.9387941  81.0602570
  70.2368784  54.4825745  81.2322521  71.7881632  53.5933542  82.4199486
  71.0129261  53.1052589  83.0105972  73.0219078  52.6577520  82.3888397
  72.6657104  51.7424822  81.9160843  73.8029337  53.0690527  81.7493629
  73.4746695  52.5170279  83.3703232  72.2371435  54.7758818  83.0068684
  72.2028542  54.5341778  83.9353085  72.1882486  54.8624897  80.3319454
  72.0415640  56.0797882  80.1940155  73.1953573  54.1744757  79.7201300
  73.1276751  53.1675339  79.7599220  74.1037273  54.8571920  78.7864161
  74.3734884  55.8424711  79.1666126  75.3625250  54.0768194  78.4442663
  74.9661016  53.3048820  77.7846766  75.9602833  54.8298120  77.9306650
  76.1593580  53.3893204  79.5965004  76.6238165  52.2558117  79.2822027
  76.1886501  53.8893747  80.7287979  73.4740591  55.2601910  77.4312878
  73.6914158  56.4320707  77.0313787  72.5653791  54.4952726  76.8598461
  72.3067379  53.6206055  77.2936201  71.7456770  54.9976254  75.7261133
  72.3301554  55.3783464  74.8885345  70.9102774  53.8849592  75.1375914
  71.4455032  52.9579592  74.9319077  70.2990532  53.6165190  75.9992456
  70.0812006  54.3444014  73.9145803  70.7581472  55.0244665  72.8759909
  71.8180609  55.2317905  72.8765249  70.0045156  55.3301811  71.6557217
  70.4200506  55.9024429  70.8394814  68.6142159  54.8870325  71.5641785
  68.1275415  54.9467230  70.6018972  68.0934668  54.0550280  72.5258923
  67.1566677  53.5594845  72.3179293  68.7462378  53.9193726  73.7463617
  68.3343410  53.3428144  74.5614147  70.9011602  56.2055111  76.0988379
  71.0491323  57.1884537  75.4728365  70.0125456  56.1276770  77.0721149
  69.8168182  55.2538919  77.5393343  69.2637157  57.2366667  77.5948238
  68.5300493  57.4417591  76.8152285  68.3501482  56.6774368  78.7125063
  67.7870369  55.8375359  78.3056021  68.9808655  56.3188171  79.5259476
  67.2340441  57.6076365  79.2583132  66.9459057  58.3294582  78.4940767
  66.3536644  57.0654488  79.6033716  67.6575279  58.4322262  80.4593658
  68.7948322  58.3287096  80.8831882  66.8937731  59.3661118  80.8945465
  67.2913551  59.9949932  81.5775776  65.9875488  59.5458651  80.4864311
  70.0814390  58.4794569  77.9498816  69.6034431  59.5483255  77.5969076
  71.2150526  58.3726883  78.6428547  71.4439487  57.4078989  78.8349056
  72.0839596  59.5865917  78.8468981  71.6019344  60.3479815  79.4601154
  73.3812094  59.1193628  79.6714878  73.0377769  58.8935804  80.6810379
  73.8100004  58.1989098  79.2752457  74.4624376  60.1376295  79.8420763
  75.2145576  59.5081902  80.3177071  74.7771645  60.5845070  78.8990259
  74.0026569  61.2315512  80.8353615  73.3029699  61.8556929  80.2794933
  73.5125542  60.8280659  81.7214108  75.2381039  62.0517635  81.2468719
  75.7633018  62.2603130  80.3147888  74.9527216  62.9994726  81.7035007
  76.0998631  61.3921452  82.2465992  76.7560720  62.0810223  82.5856113
  75.5261946  61.1403990  83.0388260  76.6495132  60.5884838  81.9780636
  72.4280930  60.3080225  77.5515985  72.4269867  61.5514851  77.5636816
  72.7736950  59.4730854  76.5074587  72.7550840  58.4648514  76.5642118
  73.1025934  59.9529314  75.1657152  73.8371706  60.7566690  75.2157688
  73.8336468  58.8938379  74.4271898  73.9558268  59.2410564  73.4012175
  74.7952509  58.6843395  74.8957300  73.3111668  57.9394722  74.3615961
  71.9328499  60.4867458  74.3293428  72.1343374  61.5918684  73.7763023
  70.7380724  59.8293066  74.4035959  70.6711531  59.0182924  75.0018263
  69.4545078  60.4156923  73.8881683  69.6317863  60.7124138  72.8544235
  68.3053207  59.3128109  73.9530230  68.2374716  58.8737631  74.9483776
  66.9407797  59.8933983  73.6856604  66.8392420  60.6243515  72.8834677
  66.1838245  59.1124487  73.6132765  66.6133738  60.4283333  74.5771456
  68.6380005  58.2138872  73.0009413  68.9063787  58.5577202  72.0020103
  69.4697666  57.6658726  73.4435940  67.8532124  57.4757624  72.8354597
  69.0439034  61.7491102  74.5697308  68.7537766  62.7143383  73.8836479
  69.0269232  61.7472410  75.9115934  69.3783951  60.9702539  76.4527607
  68.7770796  62.8876019  76.7107534  67.7250147  63.1080437  76.5300035
  68.8923359  62.4233246  78.1490469  68.2005453  61.5832424  78.2106256
  69.9031544  62.1182060  78.4196997  68.2412243  63.4755611  79.0303659
  67.0384026  63.5740376  79.1437340  68.9515829  64.3275023  79.7311449
  68.4381676  64.8265743  80.4434872  69.9250221  64.5268679  79.5501328
  69.6996880  64.0457153  76.3664103  69.2251444  65.1769352  76.1110544
  71.0161114  63.7482452  76.2243700  71.3164902  62.8334618  76.5294075
  72.0061874  64.7719860  75.7025480  71.9819641  65.6505680  76.3472271
  73.4567881  64.1801929  75.8430290  73.7134409  63.8315201  76.8433571
  73.5909462  63.2793140  75.2442694  74.6052122  65.1469469  75.4341459
  74.6052122  65.3221226  74.3583155  74.3654585  66.1558580  75.7698917
  76.0168123  64.6626663  75.6859684  76.0860395  64.7051620  76.7729378
  76.1383486  63.6230612  75.3817463  77.1539831  65.4157066  75.0081301
  78.1217241  64.9335623  75.1463699  77.0061636  65.3672743  73.9292860
  77.2050524  66.7283392  75.5637741  77.3214817  66.7883158  76.5652514
  78.0275154  67.1709967  75.1794386  76.4289904  67.2635365  75.2013063
  71.7126083  65.2963066  74.2975998  71.6947699  66.4798689  74.1682625
  71.4263153  64.4283819  73.2617712  71.5024137  63.4360886  73.4340048
  71.2139606  64.8876953  71.9333744  72.0708609  65.5079651  71.6705179
  71.1856127  63.6646748  71.0442305  72.1058083  63.0862713  71.1266518
  70.3180838  63.0875254  71.3642263  71.0458374  63.9956570  69.5510006
  70.1009893  64.5086384  69.3715143  72.2182369  64.7812557  69.0098763
  73.1142855  64.2276239  69.2903900  72.1201658  64.7788525  67.9242992
  72.1784735  65.8004522  69.3942595  70.9884596  62.7396441  68.6742926
  70.6727552  62.9616594  67.6549053  71.9339418  62.2030354  68.5954809
  70.1617384  62.0893526  68.9602232  69.9722576  65.7840395  71.7799997
  70.0118828  66.8173361  71.1434650  68.8569784  65.3739738  72.5023031
  68.9462996  64.5021725  73.0043840  67.7007198  66.2396002  72.7193880
  67.2089052  66.4234495  71.7641830  66.6749668  65.5372667  73.5329247
  67.1079826  65.1925325  74.4719458  65.8584452  66.2269735  73.7466908
  65.9796238  64.4111300  72.8170061  66.6123533  63.8230801  72.1522141
  65.3371906  63.3612347  73.7798500  64.5620108  63.8445902  74.3744612
  64.9239492  62.5266027  73.2135201  66.1181211  63.0440807  74.4709778
  64.9490261  64.8246431  71.8446112  64.6604252  63.9163113  71.3156891
  64.1338539  65.3523302  72.3397303  65.2885866  65.5611134  71.1163139
  68.0845690  67.5453758  73.4836483  67.6810646  68.5931158  73.0121088
  68.9697313  67.4409151  74.4990730  69.2248678  66.5209770  74.8287868
  69.3377686  68.5830975  75.3077555  68.4607935  69.1589355  75.6034279
  70.0703907  68.2556200  76.5859461  70.9416723  67.6577759  76.3184500
  70.4061842  69.4582033  77.3697758  71.1504221  70.0759888  76.8672276
  69.5670891  70.1413298  77.5015593  70.8894825  69.2938900  78.3328533
  69.2753506  67.5876760  77.5084019  69.1871691  66.7429304  77.0609283
  70.0543022  69.6051121  74.4206524  69.9437761  70.7936573  74.5893717
  70.8479881  69.0441275  73.5214376  71.0590219  68.0565071  73.5345840
  71.6254377  69.9005985  72.6077652  71.9936419  70.7848501  73.1279850
  72.7666473  69.0118599  72.0691586  73.4095573  69.5116568  71.3446093
  73.3805466  68.4452772  72.7693081  72.3153877  68.2390547  71.4468670
  70.7665539  70.4089832  71.3700104  71.1471796  71.3813257  70.7852459
  69.6037483  69.7885275  71.1615896  69.2215490  69.1622972  71.8557549
  68.7035894  70.2443409  70.1230907  69.2326403  70.6520367  69.2616940
  67.8954840  69.0151167  69.6192074  67.2370148  68.6395216  70.4024363
  67.1914339  69.4124317  68.8880777  68.6535597  68.0312729  69.0684414
  69.1304398  67.7115917  69.8378515  67.7255917  71.2609100  70.7082796
  66.6380787  71.5026331  70.1437044  68.0544615  71.9026995  71.8419361
  68.9084339  71.5764570  72.2713566  67.3113537  72.9381609  72.4941254
  66.2394667  72.8133631  72.3405695  67.5414038  72.8872967  74.0428019
  68.6166573  72.8845644  74.2214632  67.0779324  73.7345505  74.5482302
  66.8527508  71.6533375  74.7153568  67.2607279  70.7219601  74.3226862
  66.9957924  71.7176962  76.2077999  66.6836357  70.7929897  76.6931677
  68.0729008  71.7536020  76.3710499  66.5828705  72.6736593  76.5298653
  65.3103971  71.5362358  74.5184994  64.7280931  72.4509573  74.6294498
  65.1890802  71.2095594  73.4857082  64.8815346  70.9596491  75.3380871
  67.4110985  74.3002224  71.8587208  66.3494110  75.0066042  71.8140888
  68.5197401  74.8202133  71.6822481  69.2177629  46.6268206  76.6693020
  54.7935486  80.5460453  35.2754259  53.8109398  80.4607487  35.4929328
  54.7402430  80.6553745  34.2727757  55.2828693  81.3476467  35.6470442
  55.4194117  79.2529106  35.6285691  56.3696480  79.1469383  35.1051927
  55.7431412  79.2314100  37.1542454  54.8460960  79.4902182  37.7167606
  56.3082647  77.9010963  37.5718451  57.1353436  77.6661634  36.9018841
  56.6133070  78.0596399  38.6062145  55.5233574  77.1629190  37.4071956
  56.6364813  80.3207207  37.2793341  56.7554617  80.4661846  38.2207584
  54.4845963  78.1327534  35.2300429  53.4536314  77.9481602  35.8487725
  54.8902035  77.3386335  34.2056727  55.6628180  77.5481462  33.5898209
  54.1366816  76.1211157  33.8423586  53.1617975  76.4920855  33.5260081
  54.9789095  75.5851364  32.7307844  55.2561140  76.2913990  31.9481897
  55.9176826  75.2243805  33.1511116  54.2183638  74.4072866  32.1676946
  53.9613724  73.4216309  32.7945089  53.9058638  74.5987654  30.9224606
  53.2604074  73.9217854  30.5414391  54.3011427  75.3971100  30.4465389
  53.9043331  75.0949001  34.9979162  54.8951149  74.4663668  35.4165769
  52.6885176  74.8407888  35.4116035  51.9556475  75.3766060  34.9689889
  52.3577118  73.9931154  36.5847063  52.9157925  74.4202757  37.4178839
  50.8413649  74.0515900  36.9414806  50.2311039  73.9206266  36.0478759
  50.6516838  73.2839584  37.6917171  50.3228045  75.3120899  37.6287937
  50.8651352  75.5607367  38.5410190  50.3234291  76.1929893  36.9868350
  48.8225174  75.2010441  38.0893397  48.2258797  74.1855049  37.8373671
  48.2496405  76.1746311  38.7875009  47.3093700  76.0220766  39.1232419
  48.8228607  76.9829893  38.9826298  52.8098202  72.5421143  36.4673567
  53.2492447  71.9701767  37.4705243  52.7408171  71.9162607  35.2926826
  52.3521614  72.4713039  34.5436978  53.3662796  70.5606556  35.1940680
  52.9331732  69.9387646  35.9775019  53.0238533  69.8774910  33.8496566
  52.8865671  70.6898499  33.1359816  53.8149261  69.4375706  33.2423925
  51.7407656  69.0387583  33.7936544  50.9107256  69.5553493  34.2755938
  51.4880943  68.8396692  32.2744536  50.6837702  68.1053925  32.2297478
  51.1840200  69.7963715  31.8497539  52.3108006  68.4057140  31.7061758
  52.1330786  67.7192688  34.4498467  51.3870096  66.9560289  34.2286277
  53.1321859  67.4624491  34.0978026  52.3003626  67.8206635  35.5221510
  54.8850679  70.6649590  35.4396939  55.3699398  69.9248886  36.2843370
  55.5781031  71.5232372  34.6477056  55.1158047  72.1806908  34.0360403
  56.9789076  71.7302513  34.9021554  57.4367523  70.7415152  34.8724794
  57.6781940  72.6397800  33.8669562  57.4610424  73.7061214  33.9291286
  58.7382126  72.5941229  34.1167116  57.4026299  72.1808481  32.4718094
  57.7416086  71.1471462  32.4035311  56.3545752  72.3040342  32.1988487
  58.1782770  72.8201628  31.3815761  58.3281517  72.2717905  30.2527237
  58.6852264  74.0403700  31.4212179  58.9365625  74.4824553  30.5485821
  58.7415981  74.5710325  32.2787237  57.2437572  72.0533371  36.4361620
  58.1010008  71.3703156  37.0238328  56.4257002  72.9086924  37.1211624
  55.6161880  73.2458639  36.6200519  56.5438700  73.1324434  38.6501813
  57.5333977  73.5151482  38.9001274  55.4504156  74.1776562  39.0209842
  55.4996729  75.0495100  38.3686471  54.5094061  73.6630297  38.8266897
  55.4784441  74.5918274  40.4432821  56.1704254  75.8055401  40.7545042
  56.5527248  76.4284468  39.9593711  56.4344168  76.1482716  42.1506882
  56.9252396  77.0652342  42.4416685  55.9197569  75.3240490  43.1224346
  56.1297560  75.6086636  44.4475985  56.3308811  74.7601843  44.8491335
  55.2883625  74.0723848  42.8775024  55.1586008  73.3152914  43.6366987
  55.1791334  73.7066555  41.5025854  54.7556019  72.7365398  41.2883711
  56.4379835  71.8336344  39.4727325  57.1542358  71.6095400  40.4358482
  55.5566168  70.9100628  39.0046859  54.9808311  71.1866379  38.2223320
  55.1962471  69.6718645  39.6997237  55.0153351  69.9640417  40.7341337
  53.7966156  69.1332531  39.0802574  53.1534052  70.0132132  39.0734291
  53.9974356  68.8277102  38.0534124  53.0063581  67.9956770  39.7421622
  53.3630562  67.0255232  39.3962312  52.9600430  68.1366587  41.2152767
  52.6072836  67.1767712  41.5924788  53.9768219  68.2912683  41.5763474
  52.2379923  68.9147377  41.4629316  51.5589905  68.1072426  39.1460514
  51.5027618  68.0133438  38.0615616  50.9187126  67.3210049  39.5460200
  51.0845375  69.0642834  39.3629980  56.2984753  68.6119747  39.7206306
  56.5495920  67.9781532  40.7290745  57.0991993  68.5156393  38.5999775
  56.7981482  69.0224504  37.7798510  58.3366919  67.7537632  38.5488081
  58.1676245  66.8050957  39.0582657  58.6584425  67.4243355  37.0774555
  57.7624798  66.9366789  36.6933393  58.8043880  68.3560467  36.5309024
  59.9990273  66.6492414  36.9286561  60.7675886  67.3462009  37.2628117
  59.9850273  65.3027344  37.7950168  58.9582968  65.0185919  38.0256319
  60.4937887  64.4706583  37.3082781  60.4869270  65.5660439  38.7260747
  60.2130079  66.3216734  35.4358387  59.4258261  65.6474304  35.0984287
  60.2609682  67.2484350  34.8640728  61.1606026  65.8079958  35.2736688
  59.5267487  68.5357332  39.2057657  60.2700377  67.9426098  39.9967122
  59.7109795  69.8423433  38.9438343  59.0911484  70.3338671  38.3158827
  60.8441210  70.6747293  39.3922758  61.8200684  70.2135658  39.2407441
  60.9952641  71.9412661  38.5266852  60.0526714  72.4772215  38.4154773
  61.7469931  72.5862169  38.9817047  61.4553547  71.5916920  37.0664120
  62.4302292  71.1246014  37.2062039  60.7798767  70.8653307  36.6144896
  61.6136503  72.7576923  36.1178994  62.2454691  72.4760962  35.2755189
  60.6331253  73.0613422  35.7511926  62.1226740  73.9756966  36.7196846
  61.4869118  74.2798758  37.4431348  63.1336784  74.6845198  36.2920833
  63.8837481  74.3419170  35.2849245  63.6476946  73.5141325  34.7565722
  64.5414448  75.0139380  34.9162507  63.5459566  75.7752752  36.8671632
  63.0587721  76.0551214  37.7064729  64.3395185  76.3222504  36.5651989
  60.8323240  71.0453272  40.8573437  61.8470955  71.3316822  41.4509535
  59.6550465  71.0516644  41.5008497  58.8361311  70.8159685  40.9587002
  59.4143915  71.4192915  42.9188776  60.4242849  71.5657806  43.3019590
  58.6899042  72.7758694  43.0310535  57.6324940  72.5810003  42.8521442
  59.0640593  73.4042835  44.3520784  59.1500664  72.6768732  45.1592827
  60.0570107  73.8518047  44.3954182  58.2383060  74.0772009  44.5831919
  59.1314602  73.7718439  41.9673395  58.5893679  74.7131968  42.0573187
  60.1750135  74.0861368  41.9492102  58.9086676  73.3088446  41.0060406
  58.8680363  70.4143238  43.8343716  59.5202398  70.0435638  44.8346043
  57.7173090  69.8958731  43.4842491  57.2980595  70.2280807  42.6275253
  56.9727516  68.8660622  44.2843437  57.0667410  69.1636324  45.3287172
  55.4937220  68.9314318  44.0119028  55.2689409  68.5586977  43.0125761
  54.8109531  68.0901098  45.0389528  55.0653172  68.3789587  46.0587454
  53.7243891  68.1712198  45.0089979  55.0736046  67.0389223  44.9200964
  54.9905634  70.3264093  44.0747690  55.3043509  70.9043598  43.2055092
  53.9030457  70.2564240  44.0523863  55.1484919  70.8442831  45.0207901
  57.6219702  67.5078487  44.2790365  57.9781342  67.0180368  45.3611898
  57.7562380  66.9131088  43.0740499  57.2588873  67.3154736  42.2924805
  58.4158278  65.5745125  42.9787588  57.9054928  64.7727823  43.5125065
  58.4664679  65.1245022  41.5180969  57.5003529  65.3341722  41.0590076
  59.0296125  65.9154940  41.0228157  59.0888882  63.7404871  41.1180115
  58.9020586  63.4591341  40.0816536  60.5575752  63.5660839  41.4446926
  60.8019543  63.5668230  42.5069427  60.7053804  62.6109982  40.9406376
  61.1602116  64.4142151  41.1197138  58.2110548  62.7046680  41.8280220
  58.3231354  61.7193699  41.3755608  58.4331656  62.6637888  42.8943729
  57.1495199  62.9494238  41.7913818  59.8166323  65.5614138  43.6912251
  60.0982904  64.6305084  44.4766045  60.6393051  66.5997076  43.4558582
  60.3071833  67.3741055  42.8989887  62.0239305  66.7314672  44.0288067
  62.4869347  65.7901144  43.7328768  62.6464319  67.9264021  43.2800388
  62.6105070  67.7460194  42.2056723  62.0274782  68.8162041  43.3951664
  64.1240120  68.2222414  43.7788248  64.2249203  68.2415581  44.8639727
  64.6858215  67.3656559  43.4063387  64.7023821  69.5041180  43.1453800
  65.7671833  69.5825577  43.3648062  64.5525646  69.5289421  42.0660114
  63.9744139  70.7257843  43.7309456  62.9677248  70.6178379  43.3271885
  63.9866161  70.6501770  44.8182535  64.5085859  72.0363379  43.2139206
  64.0121508  72.8164721  43.6201715  65.4807806  72.0847797  43.4833527
  64.5015240  72.1730614  42.2132444  62.0547390  66.9246292  45.5536461
  62.8939724  66.3232899  46.2279558  61.1256218  67.6923561  46.0767317
  60.5184174  68.1478310  45.4104328  60.7437181  67.7212286  47.4692106
  61.6905403  68.0156898  47.9218960  59.6907663  68.7499523  47.8386307
  58.8067865  68.4470558  47.2774410  59.3660164  68.6456108  49.3062639
  58.7505102  67.7603102  49.4659519  60.3462887  68.5465860  49.7724867
  58.8329840  69.5393944  49.6305037  60.1159763  69.9764824  47.4719381
  60.3520250  69.9333811  46.5424109  60.5622196  66.2800550  47.9072142
  61.3221073  65.8420753  48.7189865  59.7046280  65.4089880  47.2844791
  59.0841961  65.7576799  46.5678358  59.4974709  64.0721655  47.7866983
  59.4689655  64.0638065  48.8762951  58.1935310  63.5477448  47.1052361
  58.0741835  63.9009619  46.0809803  58.3692074  62.4721956  47.1261311
  56.9630003  63.8277817  47.9651642  57.0258760  63.1611013  48.8252115
  56.6138220  65.3116941  48.2481384  56.2717772  65.7714748  47.3209333
  55.8849669  65.1940680  49.0500307  57.4565744  65.8475161  48.6849022
  55.8375311  63.2874250  47.1587276  54.9911404  63.1018353  47.8200102
  55.6076193  63.8508558  46.2544107  56.1787987  62.3353386  46.7523241
  60.6559467  63.0727291  47.4987030  60.9284115  62.2951269  48.3980989
  61.2839603  63.0052280  46.3355064  60.9030962  63.5777235  45.5957127
  62.3735619  62.0971155  45.9922981  61.9392300  61.1121845  46.1636686
  62.5116825  62.2583580  44.5056486  61.5413952  62.1893644  44.0138388
  62.9894543  63.1995106  44.2334890  63.4053564  61.2582111  43.8246155
  64.7417879  61.2426662  43.8199520  65.4327011  61.9268990  44.2899275
  65.1779032  60.1773739  43.0818653  66.1802244  60.0707388  43.0178833
  64.1555500  59.3979311  42.5718975  64.0742397  58.3063030  41.7504930
  64.9728394  57.8289223  41.3885117  62.7767563  57.8210115  41.4235258
  62.8033447  56.9394732  40.8001518  61.6241407  58.4040737  41.8451595
  60.6671238  58.0575371  41.4839983  61.6529846  59.5250511  42.7578497
  60.7743788  60.0556898  43.0938196  62.9722548  60.0904751  43.0389547
  63.6226225  62.2606516  46.7650938  64.3739510  61.3192368  47.0692873
  63.9701796  63.4333706  47.2894430  63.4848070  64.2631960  46.9797659
  65.0660944  63.6259317  48.2429981  65.9145975  62.9816103  48.0127907
  65.5811262  65.0542736  48.3521080  64.7259903  65.6804276  48.6066055
  66.2614870  65.1666689  49.1962528  66.2530804  65.6275034  47.0690346
  67.1651983  65.0415373  46.9559669  65.6028557  65.4394388  46.2146759
  66.5503454  67.1340847  47.3447943  65.6132460  67.6907921  47.3492002
  67.1747923  67.2093773  48.2350206  67.3796701  67.5867224  46.2019253
  66.8545818  67.1937418  45.3313208  67.4108267  68.6646509  46.0431576
  68.8397837  67.1116352  46.3300753  68.7383509  66.1479425  46.6148853
  69.3947124  67.1459818  45.4868841  69.3559980  67.4115849  47.1447229
  64.5933628  63.0847549  49.6398401  65.3879833  62.7374744  50.4693985
  63.2889605  63.1975079  49.9935722  62.5669050  63.4303236  49.3268394
  62.8357172  62.8324461  51.3979292  63.4430361  63.4673166  52.0430756
  61.3794899  63.1986761  51.5118551  61.1584330  64.1692495  51.0677433
  60.8045721  62.4948740  50.9099960  60.9247208  63.0375147  52.9578066
  60.9632301  61.9869280  53.8495970  60.5954456  62.4326754  55.0481033
  60.7990408  61.9290304  55.9815359  60.3416061  63.7032223  54.9366474
  59.9288034  64.2029476  55.7112217  60.5827236  64.1496372  53.6590528
  60.4940987  65.1707315  53.3185911  63.1450939  61.4320183  51.8602848
  63.0970001  60.5292940  51.0098982  63.6141634  61.2226439  53.1547689
  63.6934662  62.0075607  53.7854147  63.8677692  59.8803568  53.7236929
  64.8219156  59.5283556  53.3315182  64.0398502  60.1044083  55.2309275
  64.9082565  60.7124424  55.4844332  63.1387281  60.6138659  55.5723000
  64.2559862  58.8697290  56.0983515  64.3002367  59.2372847  57.1235561
  63.3604431  58.2536793  56.0172176  65.4812670  58.0552197  55.8514643
  66.4359713  58.1775904  56.5499640  65.4858303  57.1595335  54.8845959
  66.2329435  56.4864492  54.7904015  64.7009087  57.0357132  54.2611551
  62.8322029  58.7871170  53.3660746  63.2276869  57.6520443  52.9998207
  61.5113020  59.0063477  53.5337067  61.1897182  59.9386024  53.7518644
  60.4409409  57.9659796  53.4826851  60.6172514  57.0604229  54.0631819
  59.1694260  58.5758591  54.0933132  58.8280535  59.4629812  53.5598516
  58.3319283  57.8786659  54.0684557  59.1867256  59.1718531  55.4994965
  59.9390459  58.5966778  56.5429354  60.5573368  57.7383375  56.3252783
  59.9076605  59.1539001  57.8438473  60.4880667  58.6960983  58.6312103
  59.2016268  60.3299904  58.0762100  59.2243767  60.8033705  59.0466738
  58.4139395  60.8713961  57.0617676  57.9184532  61.7763567  57.3810434
  58.3670568  60.2821636  55.8141947  57.7168608  60.7003784  55.0600433
  60.0834036  57.5223160  52.1201038  59.4215679  56.4930391  51.9195795
  60.6779718  58.2290792  51.1137342  61.2826109  59.0083265  51.3311911
  60.2465057  58.0006647  49.7351980  59.1697979  57.9048538  49.5951176
  60.6190872  59.3264914  49.0226316  61.6882706  59.5067930  48.9110422
  60.0884581  59.4717836  48.0816650  60.2603674  60.1252365  49.6718025
  61.0344696  56.7331171  49.1498423  60.5353165  56.2152863  48.0765343
  62.0798683  56.2152433  49.8184395  62.3908424  56.7197180  50.6363058
  62.8868294  55.1108217  49.4049740  63.5301304  55.5474615  48.6410284
  63.8812017  54.6802282  50.5547667  64.7484303  54.1974258  50.1043034
  64.2853498  55.6075621  50.9607506  63.4670162  53.7712717  51.6883469
  63.1550837  54.2840576  52.9054546  62.9095507  55.3164530  53.1061268
  62.9706955  53.2470942  53.7790108  62.6702881  53.4404755  54.7237110
  63.1511593  52.0220041  53.1756115  63.0830193  50.6932545  53.5962439
  62.6662207  50.4502010  54.5624733  63.3803606  49.6851015  52.6900530
  63.2842445  48.6352491  52.9245424  63.7003422  50.0069380  51.3485336
  63.8059664  49.1885281  50.6517935  63.7359238  51.2987375  50.8889484
  64.0135622  51.5389919  49.8732710  63.4513283  52.3045397  51.7913675
  62.1403122  53.8904715  48.7839746  62.6944494  53.3594751  47.8369999
  60.9790039  53.4120512  49.3335485  60.2271891  53.9811134  50.4481077
  59.6369743  54.8373652  50.1216459  60.8998203  54.2162752  51.2729502
  59.2908669  52.9008293  50.8881521  58.3837938  53.2906342  51.3500738
  59.7262907  52.1737814  51.5736437  58.9184380  52.0550394  49.6898317
  58.0073643  52.4259090  49.2202568  58.8447380  50.9873009  49.8962402
  60.1617002  52.2669744  48.7368155  60.6483603  51.3132906  48.9411545
  59.7676420  52.3265219  47.2889423  59.4991970  51.3009644  46.6389322
  59.6578741  53.5904598  46.8240023  59.8616362  54.3302584  47.4807215
  58.8157463  54.0071440  45.6637764  58.2459259  53.1179142  45.3941965
  57.8642178  55.1095724  46.1443567  58.4933186  55.9907293  46.2704420
  57.2820234  55.3992224  45.2695704  57.0388699  54.7751236  47.3409319
  57.3801041  55.3283691  48.6196995  58.1991529  56.0320711  48.6389208
  56.7266178  54.9419546  49.7997665  57.0441866  55.3309298  50.7559347
  55.6618643  54.1378689  49.7507620  55.1544428  53.8052416  50.6442356
  55.2251291  53.6302423  48.4549570  54.3632078  52.9806662  48.4941912
  55.9689093  53.8589859  47.2833252  55.6648111  53.3869982  46.3607454
  59.6072149  54.3928003  44.4060278  58.9578485  54.6711063  43.4108400
  60.9502649  54.5130062  44.5296812  61.4067030  54.1493368  45.3540039
  61.7649126  55.0620127  43.4345531  61.2419081  55.9582663  43.1009245
  63.1787825  55.5002308  43.9480114  63.6704159  54.6613359  44.4406128
  63.7677908  55.7489395  43.0652237  63.0653381  56.6308689  44.9906063
  62.3961496  57.4010134  44.6069813  62.6167631  56.3258982  45.9360504
  64.5161152  57.1802998  45.2323103  65.4734993  56.4519596  45.0373793
  64.6598053  58.4209204  45.7453251  65.5918550  58.7520790  45.9495926
  63.8898420  59.0465069  45.9347868  61.8880749  54.0782118  42.2922754
  62.5165796  54.3407726  41.3422775  61.3020325  52.8821707  42.3612070
  60.7142448  52.6942492  43.1607628  61.5514231  51.8343163  41.4060354
  61.9484758  52.2980738  40.5030489  62.7944422  51.0307884  41.9507790
  63.2466078  50.5725193  41.0712147  63.4893274  51.7732525  42.3431969
  62.5459194  50.0060081  43.0707264  62.0382690  49.1299820  42.6670313
  63.5060310  49.5795536  43.3613014  61.8267441  50.5350590  44.2835999
  62.2203684  51.4791393  44.9406338  60.7151604  49.9546528  44.6309996
  60.2672720  50.2029276  45.5015469  60.3479719  49.2581749  43.9983940
  60.2889299  50.9386158  41.2619686  59.3245459  51.2278748  42.0009518
  60.2043343  49.9314690  40.3934669  61.1527443  49.7045565  39.3360567
  62.0297861  49.3138981  39.8520803  61.3309574  50.6836891  38.8914824
  60.5044174  48.7066317  38.4045982  61.2434053  48.0996704  37.8815436
  59.7136259  49.1507149  37.7999949  59.7042179  47.8145170  39.3697643
  60.3598499  47.0793200  39.8363829  58.8528824  47.2811794  38.9468193
  59.2019367  48.8745880  40.3550339  58.3472729  49.3961191  39.9241519
  58.7789536  48.2970619  41.6861391  59.6916866  48.1858540  42.4760675
  57.5165796  48.0630827  41.9881010  56.8058968  48.3440161  41.3277149
  57.1264029  47.3036861  43.1877422  57.8461838  47.4558210  43.9920282
  55.7955885  47.8707409  43.8498926  54.9402094  47.7560520  43.1841040
  55.2905083  47.1195173  45.0922012  54.4808674  47.7102900  45.5206537
  54.9283123  46.1260986  44.8275566  56.1050749  46.9282293  45.7907629
  55.9676743  49.4125652  44.0525961  55.1062155  49.7982883  44.5977688
  56.8980503  49.5809221  44.5949602  56.0179234  49.9431038  43.1017494
  57.0954323  45.7960129  42.8771114  56.0084057  45.3115940  42.6011705
  58.1687641  45.1250648  43.1873512  58.9266157  45.5914211  43.6651278
  58.1998014  43.6638832  42.8421354  57.4004841  43.4902620  42.1216869
  59.6554422  43.3565474  42.4073696  59.9136972  43.9201736  41.5108585
  60.2160883  43.5835981  43.3141375  59.8643923  41.9292641  41.9946480
  61.0421991  41.5226746  42.0480490  58.8919687  41.2431717  41.6470814
  57.7675390  42.8838158  44.0827370  58.4602213  42.7686071  45.1036024
  56.6964054  42.0429039  44.0019751  56.2450075  42.1205711  43.1018019
  56.2285900  41.1233521  44.9275160  56.0018539  41.6400862  45.8600807
  54.9093390  40.5600452  44.3795490  54.3363571  41.4396763  44.0862322
  54.9972105  39.9815941  43.4598875  54.4773626  39.8799253  45.1136637
  57.2527933  39.9886489  45.1702547  57.1618557  39.3228674  46.2117529
  58.2145023  39.7195625  44.2651558  58.2829618  40.3197861  43.4557438
  59.3719673  38.7704778  44.5025539  58.9720535  37.9469228  45.0940990
  59.8396635  38.1945896  43.1468582  60.4457426  38.8866949  42.5622606
  60.6205034  36.9364929  43.2916880  60.8638144  36.6203332  42.2773170
  61.5406513  37.1011925  43.8523149  60.0650835  36.1324573  43.7745285
  58.6605215  37.8495955  42.2281265  58.0038595  38.7118125  42.1120453
  59.0985966  37.5459862  41.2773323  58.0697536  36.9771123  42.5071716
  60.5112219  39.3467236  45.3142166  60.7011127  38.9135051  46.4347696
  61.3768673  40.3158712  44.8330116  61.3174248  40.5447483  43.8510847
  62.3413944  41.0026884  45.6685305  63.0606318  40.2087355  45.8696127
  63.0656195  42.1758747  44.9153852  62.3711014  42.8345013  44.3938923
  63.7467718  42.6204538  45.6409740  64.1018438  41.6319036  43.8396358
  64.8481178  41.1155033  44.4433737  63.5714436  40.9991407  43.1280279
  64.8304129  42.6798105  42.9772758  65.3953981  43.3738470  43.5995436
  65.5804396  42.1372080  42.4018288  63.8457918  43.4981680  42.1539688
  62.9770088  43.8866043  42.6854134  64.4781590  44.3080378  41.7901993
  63.3672190  42.7848673  40.9130716  63.0586290  43.3952713  40.1699209
  64.0314817  42.1052933  40.5709648  62.5290489  42.2987890  41.1982203
  61.8899298  41.4983130  47.0473194  62.7311611  41.5269518  47.9783678
  60.6390762  41.9888163  47.0987940  59.9690390  41.8202114  46.3620949
  60.1177502  42.7068901  48.3227015  60.9475708  42.9882860  48.9710188
  59.2825890  43.9409971  47.8794956  58.3456612  43.6457205  47.4071884
  59.0193415  44.4246006  48.8202000  59.9154758  44.9533844  46.9478655
  60.2280998  44.4807625  46.0167408  59.0045452  46.1503792  46.5507221
  59.5166683  46.8654633  45.9069157  58.2165527  45.7712698  45.8999920
  58.5796213  46.5631914  47.4656677  61.1992931  45.4334927  47.6193810
  60.9391928  45.8138132  48.6072111  61.9920635  44.6881056  47.5559235
  61.5576982  46.3058424  47.0728922  59.2958879  41.7715168  49.2230606
  58.8271761  42.2834349  50.2464390  59.1430616  40.5104160  48.8406420
  59.5722342  40.2449894  47.9657364  58.4572124  39.5248437  49.6128178
  58.4033298  38.6774373  48.9293671  59.2259550  39.0171480  50.8449697
  59.3370485  39.8519063  51.5370274  58.6554098  38.2285762  51.3356161
  60.6767511  38.5621357  50.4642868  60.8572340  37.5543118  49.8720837
  61.6875696  39.2697072  50.8683014  62.6069450  39.0357518  50.5217266
  61.5299273  40.1383495  51.3589287  56.9778156  39.9215317  49.9575663
  56.6479540  40.0269461  51.1560392  56.1766815  40.1512098  48.9339113
  56.4347982  39.8636675  48.0007458  54.7861290  40.7113695  48.9507151
  54.6222258  41.0499525  49.9737501  54.4999027  41.8962145  47.9900599
  54.3189526  41.5922260  46.9590664  53.5262966  42.2648287  48.3130360
  55.5718422  43.0274391  48.1148720  56.5576649  42.6465464  47.8481007
  55.2335358  44.1480446  47.2563362  54.8505688  43.8343573  46.2852335
  54.6296453  44.8704100  47.8055191  56.1847305  44.6708870  47.1565151
  55.6058168  43.5686207  49.5633030  55.8197832  42.7175140  50.2097750
  56.4102602  44.2911816  49.7007179  54.6306992  43.9420080  49.8760939
  53.7884092  39.5487404  48.6536551  53.6661959  39.2403889  47.4537373
  53.0077744  39.0122890  49.6972752  53.1007147  39.1813421  51.1498547
  52.3708344  39.9626327  51.3619041  54.1173744  39.3537593  51.5031004
  52.8063965  37.8428555  51.8029213  52.2012615  38.0349183  52.6889372
  53.6657095  37.1904135  51.9578314  51.8516302  37.3195696  50.7686234
  50.9047794  37.8366423  50.9242201  51.7595720  36.2471771  50.9406614
  52.3489475  37.7536774  49.4259310  53.1364584  37.0750856  49.0981579
  51.3128614  37.7328753  48.3768749  51.0955667  36.6644406  47.7968407
  50.6054878  38.8558149  48.1983900  50.7785177  39.6131849  48.8437939
  49.5331144  38.9273095  47.2347355  49.7870207  38.3860064  46.3233471
  48.2661486  38.3551955  47.8667927  47.4062967  38.4888840  47.2103786
  48.4252739  37.2806454  47.9569197  47.9244757  38.8059711  49.2739534
  48.5203171  39.7748232  49.8090887  46.9969225  38.1772590  49.8679543
  49.2822409  40.4056311  46.7417002  48.1567526  40.8852768  46.3843060
  50.3770161  41.1226034  46.5833139  51.2760687  40.6626034  46.5688515
  50.3657103  42.5158596  46.2895584  49.9835157  43.0367565  47.1674490
  51.6807413  43.1626177  46.1163759  52.2947168  42.9718351  46.9965696
  52.2112894  42.6238251  45.3313160  51.7064190  44.6785927  45.8727837
  51.5026808  45.5101204  46.9982529  51.4821529  45.1380253  48.0119228
  51.2341452  46.8763304  46.7708588  50.9466839  47.5301600  47.5809669
  51.3880110  47.4644423  45.4725313  51.2593126  48.8064098  45.2552795
  51.6741371  49.0448236  44.4230032  51.8663216  46.6196537  44.4072628
  51.9811773  47.0915794  43.4426403  52.0454502  45.2194405  44.5758533
  52.4518299  44.6516132  43.7519455  49.4581270  42.9063463  45.0787306
  48.6143923  43.7510729  45.1011801  49.7864580  42.2536039  43.9913893
  50.5069923  41.5473795  44.0381384  49.0488005  42.4248457  42.7082253
  48.7073565  43.4571218  42.6312685  50.0349760  42.0809746  41.5946627
  50.4562235  41.0925531  41.7781687  49.5595360  42.0734692  40.6138468
  51.0973263  42.9855919  41.4184952  50.8065033  44.2253590  40.8842468
  49.7695160  44.4929028  40.7446718  51.8241596  45.1611423  40.6517935
  51.5462160  46.1703348  40.3859520  53.1810331  44.9204397  41.0996580
  54.1639996  45.8425808  40.8224916  54.7545624  45.7882500  41.5774012
  53.5696411  43.6225224  41.5931320  54.5899248  43.3906078  41.8608046
  52.4522114  42.6821375  41.7355013  52.7146673  41.7282629  42.1686840
  47.7852249  41.5586090  42.5235271  47.1074390  41.6582584  41.5313053
  47.4460793  40.6675243  43.4803724  47.9906082  40.4764366  44.3092728
  46.1028528  40.1595974  43.5638905  45.8029127  39.8506522  42.5625467
  46.1358786  38.9527988  44.4488287  46.8601131  38.2615113  44.0178919
  46.5763092  39.3018556  45.3827858  44.7597218  38.2698822  44.6392441
  44.0451097  39.0160751  44.9865532  44.5528555  37.9389453  43.6215067
  44.8934269  37.1926403  45.6975746  45.0355816  37.6811123  46.6615725
  43.8780928  36.7974472  45.7294607  46.0474443  36.1316657  45.4957294
  45.8831263  35.7936144  44.4725895  47.0522451  36.5467691  45.5742455
  45.7892179  34.9404931  46.3796616  46.5023565  34.2517996  46.1866999
  45.9113455  35.1742864  47.3546076  44.8569632  34.5783472  46.2387705
  45.1734829  41.2727261  44.0372658  44.3410015  41.6821194  43.2738733
  45.4650688  41.8761444  45.1788521  46.2453699  41.5387487  45.7241869
  44.5489740  42.7964878  45.7808971  43.5368681  42.4080610  45.6674290
  44.8690081  42.8946972  47.2851038  45.9159040  43.1704617  47.4118280
  43.8931036  43.9626789  47.9141903  43.7507057  43.8557291  48.9895487
  44.1034174  45.0028610  47.6654196  42.9313755  43.7815714  47.4342108
  44.7613811  41.5748978  48.0191851  45.5327034  40.9032679  47.6422644
  44.9837828  41.7623711  49.0696573  43.4229279  40.9932613  48.0460358
  42.6578140  41.6890383  48.3904314  43.1562567  40.5705023  47.0773935
  43.3382893  40.2671957  48.8545942  44.6222591  44.1321898  45.0414658
  43.5683537  44.6942282  44.7456694  45.7810402  44.6440983  44.5723677
  46.6045475  44.0656662  44.6581173  45.8782625  46.0388184  44.0179396
  45.1808834  46.6319275  44.6095371  47.3058844  46.7178917  44.2270613
  48.1365919  46.1839390  43.7656260  47.4419212  48.0953217  43.4452629
  46.5607977  48.6983585  43.6644697  48.3282852  48.7177849  43.5677433
  47.3580503  47.8863382  42.3787785  47.6415777  46.8090868  45.7542038
  47.7829695  45.8393669  46.2314415  48.5639143  47.3532534  45.9573603
  46.5365648  47.6932812  46.4681959  45.5787611  47.1894741  46.5981674
  46.9784021  48.0529785  47.3974466  46.2818527  48.5211515  45.8064938
  45.4440594  46.0871458  42.5934219  46.1735487  45.4898453  41.7404318
  44.3361378  46.8150091  42.3591185  44.0153933  47.2712708  43.2011652
  43.5918856  46.8347931  41.0713959  43.4771109  45.8708000  40.5757618
  42.1563196  47.2389364  41.3424730  41.7542648  46.5061140  42.0420599
  42.2098351  48.2004261  41.8531418  41.2333012  47.3405743  40.1161575
  41.7390108  48.0390358  39.4494414  41.1500597  46.3238239  39.7322488
  39.8846292  47.9309320  40.4772377  39.5362186  47.5614119  41.4416933
  40.1269865  48.9928579  40.5181837  38.8950706  47.4382496  39.3808627
  37.8771949  47.8249025  39.4311690  39.1862178  47.6943541  38.3621645
  38.7901735  45.9560919  39.3551326  38.3438540  45.6407404  38.5057425
  39.7292399  45.5871058  39.4010401  38.2058287  45.5139494  40.0502205
  44.2709255  47.6870823  40.0813961  44.3308258  47.4275351  38.8482761
  44.7991323  48.7888098  40.5890179  44.7271442  48.9021873  41.5900517
  45.5176353  49.8476362  39.8367715  45.6417084  49.4140673  38.8444400
  44.5986891  51.0728502  39.7040892  44.5784044  51.5422297  40.6876421
  45.1980829  52.0490456  38.7487984  45.2638388  51.7050314  37.7166009
  44.4804287  52.8617668  38.8608956  46.1814594  52.3504496  39.1096735
  43.3476639  50.6890202  39.2530441  42.7650595  50.7993221  40.0080299
  46.8362236  50.2578211  40.4796696  46.8961668  51.2484026  41.2593269
  47.8773785  49.4819450  40.2015305  47.9992056  48.1543446  39.5539927
  48.0160427  48.3263636  38.4777808  47.2335100  47.4973822  39.9665570
  49.3704510  47.6233912  40.0324821  49.7890997  46.8858385  39.3477583
  49.0911198  47.1222115  40.9592485  50.2871704  48.7280607  40.3272772
  50.8024979  48.9978981  39.4054675  50.9867382  48.4333992  41.1094999
  49.2050028  49.7595835  40.7467985  48.9778423  49.6082544  41.8020725
  49.7369194  51.1654186  40.4654932  49.3372631  51.8417788  39.4862700
  50.7048941  51.5843296  41.2716579  50.9646130  51.0621166  42.0962429
  51.3759661  52.8267717  41.0178185  51.8290424  52.8091717  40.0265980
  50.4781294  54.1125679  41.0663128  49.6094465  54.0374327  40.4122114
  50.1358366  54.1747808  42.0992994  51.2753439  55.3698206  40.6386375
  50.5163097  56.1504698  40.5880737  52.0468187  55.7317924  41.3182735
  52.1457005  55.1975489  39.0516400  50.7434559  54.9898148  37.8709936
  51.0797548  54.6938467  36.8773031  50.0905943  54.1950226  38.2317996
  50.2310371  55.9400654  37.7208042  52.6348686  52.9467392  41.8991804
  52.6744318  52.4677277  43.0450583  53.7338066  53.6048889  41.4713097
  53.6508751  54.1811371  40.6459808  54.9806690  53.8108492  42.1864605
  54.7026730  53.8857222  43.2377529  56.0188103  52.6777220  42.1139956
  56.9601870  52.9681873  42.5804138  55.6447792  51.8762779  42.7510881
  56.1197615  52.2557163  40.7170057  55.8896112  51.0611582  40.4530954
  56.5068150  53.0820274  39.8366189  55.5764866  55.1938391  41.8002367
  55.2282429  55.8288717  40.7483530  56.4712524  55.7864571  42.5921392
  56.7849064  55.3122997  43.4269428  56.9296551  57.1779537  42.3886728
  56.0744238  57.7697277  42.0623493  57.3532867  57.8256130  43.7197447
  56.5213633  57.8367758  44.4239283  58.2052279  57.4577999  44.2915964
  57.6583624  59.3699932  43.4512806  58.6479950  59.4454670  43.0006933
  56.9608259  59.8034573  42.7345896  57.5586128  60.2841568  45.0435114
  59.2325211  60.1336765  45.6328154  59.8607111  60.4598331  44.8039007
  59.4342899  60.6751204  46.5570641  59.3826008  59.1050577  45.9607077
  57.8917599  57.2472715  41.2044382  57.8546667  58.3494663  40.5247211
  58.7000275  56.2036896  40.8724356  58.5767412  55.4073286  41.4812994
  59.5412827  55.9955406  39.7376943  60.4278135  56.6296625  39.7451949
  59.9331284  54.9787092  39.7626424  58.6327887  56.2010002  38.4389305
  58.9889812  56.8621874  37.4922442  57.4758816  55.6178570  38.3638167
  57.0531750  55.0638008  39.0948725  56.5366745  55.6855392  37.2285652
  57.0372248  55.5681229  36.2674403  55.3663158  54.6714449  37.3929000
  54.7463655  54.8490524  38.2716584  54.3257475  54.7412682  36.2063980
  53.5320997  54.0628386  36.5193844  53.9869356  55.7767487  36.1733794
  54.8231983  54.4540930  35.2800226  55.8155107  53.3653593  37.3876882
  56.1643791  53.2290125  38.2716012  55.9903717  57.0571518  37.0683217
  56.1154795  57.6216173  35.9711218  55.4952526  57.6755238  38.1996942
  55.6193018  57.1786070  39.0702033  55.0609446  59.0846777  38.1804848
  54.2559052  59.1085339  37.4460196  54.4574499  59.5760918  39.4916916
  55.2713633  59.4855404  40.2110338  53.9923239  61.0410404  39.3573737
  54.8201180  61.7355204  39.2140126  53.2250404  61.1457539  38.5902929
  53.4845209  61.2658644  40.2952909  53.3421421  58.6682701  39.9201798
  52.4938107  58.9357042  39.2901731  53.6019754  57.6289606  39.7191358
  52.9803371  58.6716175  41.4331102  53.1009054  59.6857691  41.8139744
  51.9607830  58.2937479  41.5095043  53.6000681  57.9547930  41.9718122
  56.1778545  60.0595522  37.6864076  55.8699465  60.9550571  36.9181800
  57.4304438  59.8388720  38.1349540  57.4765396  59.1594172  38.8808203
  58.6902714  60.5420589  37.6782393  58.5774755  61.6215849  37.7782869
  59.8593092  60.1027632  38.5536981  59.5740843  60.3536940  39.5753551
  59.9480247  59.0299511  38.7248874  61.2713528  60.8007717  38.4052396
  61.6339445  60.8416939  37.3781300  61.2761354  61.8558931  38.6787271
  62.2769785  60.0655365  39.2231703  61.9667625  60.2127552  40.2576733
  62.3178768  58.9881611  39.0628958  63.6148977  60.6787634  38.9243507
  63.5190201  61.7644978  38.9153671  64.2918539  60.5975771  39.7747898
  64.2129707  60.0828552  37.7361679  64.3413973  59.0892220  37.8638697
  63.6402273  60.1835251  36.9103765  65.0784349  60.5681705  37.5476408
  59.0582371  60.4395676  36.1779618  59.3311453  61.4254475  35.4884648
  58.8155985  59.2406654  35.6279564  58.5480642  58.4648705  36.2167454
  58.8318920  59.0005445  34.1457582  59.7143602  59.4007540  33.6465740
  58.8773918  57.4782372  33.9383030  58.0888891  57.0578003  34.5624852
  58.6572313  57.3256636  32.8817272  60.1567698  56.7638159  34.2737794
  61.0003233  57.2516489  33.7853837  60.4276991  56.7538929  35.3295302
  60.0998688  55.3121185  33.7612915  59.3103933  54.7305536  34.2373371
  59.9695206  55.3496647  32.6797652  61.4683867  54.7803211  34.0676856
  62.1376562  55.3713322  33.4424734  61.6428757  55.1411152  35.0813341
  61.6808605  53.3074856  33.8947058  61.5201426  53.0600929  32.9287505
  62.6680088  53.1753159  34.0625596  61.0063839  52.7351570  34.3821788
  57.6247597  59.6365881  33.3834982  57.8895617  60.4133368  32.4113274
  56.3629007  59.5835495  33.8690996  56.2095308  58.8653803  34.5625067
  55.0881195  60.1979351  33.3666539  55.0697470  59.7682762  32.3650789
  53.8100386  59.6326733  34.0195513  54.0065956  59.6394110  35.0916624
  52.9444408  60.2784491  33.8718462  53.3516979  58.1963634  33.6039925
  53.0841827  58.1594992  32.5479722  54.1085243  57.4853468  33.9352918
  52.0960569  57.8148031  34.3734145  52.3549080  57.6293898  35.4158735
  51.5059948  58.7290955  34.3102050  51.4212275  56.7035627  33.7542105
  51.9214582  56.0172319  33.2075548  50.0951385  56.6045475  33.7001204
  49.2043257  57.1184492  34.5760417  49.5865345  57.7244806  35.2879047
  48.2550812  56.7772198  34.6269512  49.6629095  55.8994865  32.7331352
  50.3374481  55.4921436  32.1013355  48.6627960  55.8209944  32.6160455
  55.2372551  61.7198372  33.3510852  54.6726131  62.3123026  32.4929166
  56.0628176  62.2934198  34.2581582  56.4176130  61.7177629  35.0083852
  56.3294744  63.6952972  34.3064594  55.4408360  64.2482233  34.0020061
  56.7033815  64.0587091  35.7765508  57.3061323  63.2464695  36.1828232
  57.3227453  64.9527836  35.8481050  55.4780960  64.3372774  36.7065310
  54.7098827  63.5946369  36.4910340  55.8420372  64.1690207  38.1565976
  56.3501930  63.2058764  38.2038355  56.5115213  64.9913836  38.4088373
  54.9858952  64.1295671  38.8300705  54.8967886  65.7672548  36.3682151
  54.2586136  66.2072992  37.1344995  55.7265663  66.4738941  36.3833714
  54.3971157  65.7738352  35.3995132  57.4772787  64.0927505  33.3306170
  57.2870827  64.8566055  32.4067688  58.5428953  63.3520460  33.3977962
  58.5826540  62.7075529  34.1744256  59.7541761  63.6115265  32.4867654
  60.1021862  64.6207333  32.7069855  60.8389854  62.5366163  32.9022646
  60.4269552  61.5557098  33.1392360  61.3711262  62.3841286  31.9632912
  61.8104553  63.1201839  33.9485002  62.1608162  64.1094732  33.6541319
  61.2735558  63.4067249  34.8527861  62.8639936  62.0979786  34.3811250
  63.1459808  61.0845423  33.7021065  63.6100388  62.3668766  35.3543711
  59.4321394  63.4898138  30.9630752  59.7225380  64.4487619  30.2527952
  58.7267494  62.4654055  30.5354571  58.4515047  61.7630243  31.2070203
  58.4018612  62.1865082  29.1405869  59.2722034  62.5681734  28.6067867
  58.1965113  60.7324934  28.9634728  57.3397446  60.4497814  29.5751309
  57.8852701  60.5244017  27.9397893  59.4122505  59.9060440  29.3174267
  60.3515482  59.7759485  28.5482311  59.5569324  59.2997313  30.4535389
  60.4686356  58.9269972  30.6770778  58.8557291  59.3093443  31.1803961
  57.2255611  63.0587864  28.6005592  56.8217134  62.8932953  27.4642062
  56.5840340  63.8801432  29.3752050  57.0225191  64.0808010  30.2626562
  55.4592991  64.7504377  29.0120292  55.2652216  65.3670740  29.8896384
  55.9340143  65.6653452  27.8719783  55.9893894  65.1329231  26.9224739
  55.2387571  66.4849758  27.6905155  57.2273016  66.3594627  28.1387138
  58.3006954  65.8403444  27.8975868  57.1881819  67.5854492  28.6101532
  58.0238533  68.1358004  28.7475204  56.2779140  68.0123663  28.7063646
  54.2074490  63.9036846  28.6934972  53.5938644  64.1002131  27.6226568
  53.9642382  62.8356361  29.4501662  54.5152330  62.6052523  30.2646780
  52.7172089  62.0722008  29.3563485  52.5943041  61.7483377  28.3228564
  52.8565741  60.8107996  30.2420402  53.8116550  60.3152800  30.0677109
  52.9753971  61.2149048  31.2473655  51.6981173  59.7936916  30.1892161
  51.5328550  58.8955116  29.1239476  52.2850370  58.8775969  28.3491492
  50.4549408  57.9999304  29.1116095  50.2181864  57.3775578  28.2613182
  49.5150805  58.0412388  30.1883054  48.4411955  57.2348070  30.0878811
  47.7522039  57.4171019  30.7310438  49.7407150  58.9137459  31.2928843
  49.0532875  58.8952684  32.1256566  50.7857704  59.8167229  31.2809634
  50.9443760  60.5335474  32.0730567  51.4057732  62.8564501  29.7222590
  50.3604507  62.5891209  29.1688299  51.4992142  63.7226629  30.7326198
  52.4012470  63.8118267  31.1781406  50.2603626  64.4128513  31.2749243
  49.5351076  63.5997248  31.2443471  50.5219650  64.9343014  32.6490474
  51.3522720  65.6381845  32.5921607  49.6065617  65.4059458  33.0063820
  50.8820248  63.8007736  33.5946941  49.8383760  62.9654264  34.0367079
  48.8715696  62.9793787  33.5555768  50.1214075  61.9710016  34.9213529
  49.3326378  61.2506151  35.0803924  51.4231920  61.8343925  35.4438996
  51.6745853  60.8368301  36.3504481  50.9166861  60.2742290  36.5255833
  52.4818993  62.7042866  35.0614095  53.5064316  62.5438261  35.3630543
  52.2080088  63.6988211  34.1205931  52.9173946  64.3926287  33.6942148
  49.8895454  65.6553984  30.4221106  50.8088732  66.4415359  29.9803638
  48.6127472  65.8143473  30.0923133  47.9919529  65.0600290  30.3486729
  48.0831718  67.0904922  29.5234442  48.6154747  67.5468206  28.6888719
  46.6647434  66.7444324  28.9437461  46.8338633  66.1115646  28.0725527
  45.9747601  66.1695004  29.5613861  45.9390211  67.9650831  28.4148383
  46.1136103  68.5607243  27.1697617  46.7588711  68.3592129  26.3274789
  45.2336121  69.6721840  27.1424079  45.2330923  70.2454615  26.3108730
  44.3151951  69.6277094  28.1437778  43.1862068  70.4138851  28.3501196
  42.9813433  71.2053776  27.6444483  42.3934221  70.2448416  29.5043278
  41.5484095  70.8945417  29.6782207  42.7547550  69.1749907  30.3489780
  42.2010422  69.1313601  31.2752080  43.9401293  68.4192753  30.1577902
  44.1501760  67.6232529  30.8568120  44.7057867  68.5536242  28.9889550
  47.9335928  68.1744528  30.6500506  48.2603168  69.3517399  30.3016758
  47.6335382  67.8353977  31.9095230  47.4692345  66.8456841  32.0260096
  47.5861549  68.7637568  33.0107617  48.0948544  69.6948051  32.7608013
  46.1088991  69.1418409  33.2258391  45.7379246  69.2817116  32.2105002
  45.5191231  68.3587599  33.7023306  45.9393644  70.5054665  33.8210106
  45.7308865  70.6343222  35.0343060  45.8461666  71.5746641  33.0893397
  45.6616354  72.4776697  33.5024118  45.8797169  71.4665699  32.0857000
  48.2626104  68.2875729  34.3111229  48.3020067  67.1375036  34.7069478
  48.5774088  69.2974663  35.1768041  48.5187197  70.2413225  34.8221278
  48.9592695  69.0886974  36.5723062  49.9059248  68.5484600  36.5631914
  49.1656780  70.4721260  37.1955729  48.3915567  71.1978292  36.9461775
  49.3113041  70.4263496  38.2748294  50.0364399  70.8582878  36.6657114
  47.8890705  68.3379221  37.4062824  48.1795740  67.4434614  38.1842375
  46.5958452  68.6161947  37.2012758  46.3781738  69.3229818  36.5134001
  45.4313374  67.9230165  37.7528930  45.5061007  68.0246067  38.8355708
  44.2390108  68.6964560  37.1746492  44.4089746  69.7463751  37.4131536
  44.2952251  68.5668707  36.0938406  42.9163170  68.3009768  37.8253102
  43.1522703  68.2281065  38.8869691  42.1690083  69.0866709  37.7143335
  42.3391914  67.0484018  37.2791958  42.6634836  66.4316034  36.2995410
  41.3075876  66.6070795  37.9611444  40.9192419  65.7209110  37.6713157
  40.8309984  67.2520494  38.5751319  45.3775406  66.3944054  37.4141526
  44.7981215  65.6419373  38.1221843  46.1518955  65.8983326  36.3849783
  46.6105461  66.6058159  35.8289146  46.2246227  64.4761896  36.0796642
  45.3114605  63.9807367  36.4094472  46.4961720  64.2664480  34.5990849
  47.4262476  64.7910213  34.3802643  46.6661739  63.2013512  34.4416833
  45.5096674  64.8380518  33.5830736  44.5123005  64.5148754  33.8812566
  45.4840612  65.9097099  33.7805510  45.8009768  64.4943571  32.1251726
  46.9768143  64.1856670  31.7778921  44.8850727  64.3809271  31.2512422
  47.2743988  63.8267469  37.0074105  47.0526409  62.7708864  37.5586748
  48.4602070  64.4471836  37.0750451  48.6447382  65.2988052  36.5643644
  49.5085812  63.9514780  37.8926587  49.6834278  62.8940392  37.6942921
  50.7687378  64.7213840  37.4768829  50.8720922  64.5832443  36.4006209
  50.5144835  65.7555962  37.7089572  52.2581053  64.2095470  38.4407592
  52.0193148  62.9387665  38.1046081  49.1479778  63.7855530  39.4110441
  49.3131924  62.7205610  39.9666572  48.4582090  64.7065592  40.0305796
  48.4244633  65.5949879  39.5513558  47.7399445  64.6280003  41.3073206
  48.4857416  64.6605015  42.1015644  46.8226624  65.8674431  41.5910769
  45.9999609  65.9179544  40.8778334  46.1010075  65.5714607  42.9134798
  45.3172350  64.8265362  42.7760744  46.7953205  65.2189445  43.6762142
  45.4896307  66.3963032  43.2794762  47.5111341  67.2254848  41.5503168
  48.3585835  67.1654844  42.2332001  47.9123449  67.4162769  40.5549622
  46.5676880  68.4026146  41.9504547  47.1093607  69.3354654  41.7939758
  45.5805111  68.4427118  41.4900541  46.3308907  68.3202028  43.0112267
  46.9036627  63.2559538  41.4975834  46.9101906  62.6690865  42.5641823
  46.2152719  62.8198147  40.4505491  46.2415934  63.3114004  39.5686483
  45.4188013  61.5358734  40.5197287  44.9032164  61.5742731  41.4793110
  44.3437862  61.4084578  39.3785906  44.7449541  61.1967230  38.3874631
  43.6526060  60.6281519  39.6971679  43.4925890  62.6016188  39.0747619
  43.9671707  63.2682657  38.3547211  42.5257254  62.2572231  38.7077785
  43.1331396  63.4428263  40.3530931  42.9914570  62.9755306  41.4817429
  43.0876446  64.7862959  40.2233362  43.0522394  65.3840399  41.0366964
  43.4264612  65.1954460  39.3643284  46.3321543  60.2986765  40.7155132
  46.0467434  59.3580198  41.4400434  47.5694180  60.2821827  40.1006556
  47.9557419  61.1476231  39.7515559  48.5144758  59.1286182  40.1207113
  47.9841137  58.1845140  39.9962831  49.4910955  59.2260599  38.9303946
  49.8921585  60.2384186  38.8816071  50.3107262  58.5493708  39.1720629
  48.9375877  58.8443422  37.5430751  47.8165150  58.3102942  37.4585414
  49.6139193  59.0399361  36.5126157  49.2591381  59.1176605  41.5145350
  49.4956827  58.0525684  42.0761728  49.7673988  60.2963209  41.9333458
  49.6190977  61.0756254  41.3082170  50.1997328  60.5081320  43.3252239
  51.0730267  59.8587036  43.3860302  50.6070137  62.0376253  43.5669470
  49.8986626  62.7462387  43.1377554  50.5479908  62.2151947  44.6407652
  51.9880199  62.4883747  43.1802511  53.0140924  62.1203613  44.0630913
  52.7728415  61.4934540  44.9087763  54.3978739  62.5442886  43.8079596
  55.1981688  62.2073889  44.4501686  54.5804596  63.4961748  42.7623987
  55.5849743  63.8888979  42.7065754  53.5267115  63.9403152  41.9368172
  53.7245321  64.5955849  41.1014175  52.2270823  63.3965874  42.1549368
  51.3715029  63.6420488  41.5432739  49.1496325  60.1287270  44.4159365
  49.5093775  59.4555378  45.3690910  47.8745651  60.5453587  44.3493605
  47.5873613  61.2293386  43.6639452  46.8300724  59.9486399  45.1792765
  47.0273018  60.0981855  46.2408018  45.5320120  60.7272959  44.7726297
  45.6489515  61.8106318  44.8009157  45.2343130  60.3232718  43.8050365
  44.4955015  60.3642607  45.7282066  44.5836639  60.7786655  46.9187641
  43.5450649  59.6719360  45.3160238  42.8008842  59.2946196  45.8851767
  43.6125612  59.4356823  44.3363667  46.7447996  58.4310198  44.9795532
  46.6026926  57.7783108  46.0198593  46.8546391  57.8275728  43.7868500
  46.9721889  58.3921003  42.9576397  46.7518282  56.3758612  43.5415411
  45.7690763  56.0595608  43.8911867  46.8278933  56.0706329  42.0628691
  47.8075886  56.3359070  41.6654682  46.7289209  54.5288467  41.7215347
  47.6826286  54.0355825  41.9092560  45.9440660  53.9479637  42.2059822
  46.6951370  54.4560528  40.6344938  45.8160114  56.7423487  41.3911724
  45.9398222  57.6588964  41.6484976  47.7757406  55.5925417  44.3596601
  47.4808788  54.6584225  45.0805140  49.0373421  56.1252499  44.3297243
  49.2117357  56.9074440  43.7150192  50.1404285  55.5401707  45.0826216
  50.2464867  54.4958639  44.7888947  51.4941263  56.2729073  44.7568989
  51.5462828  56.4164782  43.6776543  51.5045834  57.2373343  45.2647161
  52.6825476  55.4725313  45.2140093  52.5561285  54.9364614  46.1546230
  52.8007793  54.7005796  44.4536018  54.2668676  56.3910818  45.2716970
  53.9154577  57.7189350  46.5013361  54.8353052  58.2250214  46.7943716
  53.2658052  58.4825945  46.0736942  53.5257435  57.2452307  47.4023533
  49.9300528  55.5582714  46.5813112  50.1267481  54.5252323  47.1924400
  49.5047569  56.6999006  47.2307968  49.4544220  57.5597715  46.7033625
  49.1243219  56.6530418  48.7101460  49.9247932  56.1711931  49.2715406
  48.9522457  58.0789042  49.1642284  48.0959892  58.4680414  48.6133242
  48.9233732  57.9611349  50.2474642  50.1229143  59.0344286  48.9380550
  51.3771868  58.7291002  49.4290400  51.6230869  57.8547144  50.0133181
  52.4990988  59.5414686  49.2136860  53.4656811  59.2322826  49.5831776
  52.3137808  60.6909561  48.5068798  53.1777811  61.3193846  48.3487940
  51.0479736  61.1509752  47.9846573  50.9030104  62.0353031  47.3818731
  49.9500275  60.2920055  48.2514334  48.9745474  60.5102253  47.8425121
  47.9445410  55.7826662  49.0343618  48.0678129  54.9606705  49.9501038
  46.9686937  55.7524300  48.1137133  46.9465923  56.4045763  47.3427963
  45.7828999  54.8746443  48.2631397  45.3116798  55.1136255  49.2165232
  44.7975492  55.0263643  47.0784140  45.3010368  54.7826290  46.1428976
  43.5444307  54.1732788  47.1992207  43.0064774  54.2961073  48.1392336
  42.8290701  54.4770670  46.4349747  43.7836361  53.1249523  47.0206547
  44.4210291  56.3243484  47.1213007  44.9568558  56.8062019  46.4870214
  46.2243414  53.4378862  48.3833981  45.8785009  52.9020262  49.4383764
  47.0022392  52.8273201  47.4447155  47.3469019  53.3367872  46.6436243
  47.5172949  51.4439869  47.5964642  46.6493702  50.7907009  47.5068808
  48.4055185  51.1241817  46.4011860  49.2498827  51.8078566  46.3132524
  48.8107014  50.1282978  46.5804529  47.6362324  51.1502790  45.0861406
  46.4095879  51.1673498  45.0005293  48.3367395  51.3744164  44.0128279
  47.8577805  51.8191719  43.2428360  49.3301916  51.3507128  44.1933680
  48.2004499  51.0900688  48.9317513  48.0581236  49.9941540  49.5075893
  49.0235519  52.0222044  49.4594383  49.0730143  52.9068136  48.9745474
  49.6343327  51.8812466  50.7686996  50.1655865  50.9375715  50.6448269
  50.6055164  52.9987764  51.0049295  50.0181007  53.9161634  51.0429478
  51.0998869  52.9009295  51.9714308  52.0140648  53.2600784  49.8048878
  51.2476492  53.6573792  48.7852526  48.5768604  51.7328119  51.8939924
  48.6879921  50.8791113  52.7830791  47.4597454  52.5236177  51.7327547
  47.5144291  53.2589245  51.0425138  46.4182281  52.6517582  52.7486753
  46.8468094  52.6670647  53.7507677  45.6448221  53.9374447  52.5030947
  45.1781321  53.8969564  51.5188885  44.8048067  53.8523579  53.1924725
  46.1870527  55.3069735  52.7618885  47.3766327  55.5573225  53.4261084
  47.8493881  54.7116423  53.9033175  47.8913021  56.8734932  53.6047268
  48.8028765  57.0873880  54.1429424  47.2012138  57.9757166  53.0208254
  47.7104330  59.2488623  53.2343149  47.1773720  59.9145460  52.7935076
  46.0124540  57.7700615  52.3459148  45.5621147  58.6693859  51.9524574
  45.5570650  56.4735031  52.1273232  44.6236229  56.3352394  51.6019964
  45.4013300  51.4550447  52.6060390  44.5584345  51.1402655  53.4826565
  45.4759169  50.7377577  51.4914322  46.0946894  51.0111094  50.7414341
  44.7149944  49.5834923  51.1879778  43.8118649  49.7042656  51.7862082
  44.1894770  49.5122051  49.7289228  44.9735212  49.6236372  48.9799500
  43.5266161  48.1638622  49.5348787  44.1925716  47.3429394  49.2690086
  42.9404783  47.9185390  50.4205227  42.8185606  48.1406832  48.7064934
  43.0580854  50.5734444  49.4426394  42.1971655  50.1941824  49.9931622
  43.4600067  51.5551233  49.6933651  42.7005768  50.7294941  48.0439472
  42.2615242  51.7053604  47.8365469  43.6791039  50.7160997  47.5639296
  42.1727705  49.8684645  47.6338911  45.3534985  48.2359552  51.6690397
  44.7305965  47.4754238  52.4520636  46.6105032  48.1170988  51.2782812
  46.9533110  48.8941193  50.7316351  47.4114752  46.9136572  51.4433002
  46.6952801  46.1535645  51.1311722  48.5729027  46.8388987  50.5158567
  48.1600380  47.2126627  49.5788717  49.3473625  47.5167942  50.8747292
  49.0938091  45.4279757  50.2547503  48.3916378  44.5948172  49.4281292
  47.5305891  44.9292803  48.8685417  48.8459873  43.2568073  49.3407106
  48.2588530  42.5579309  48.7634373  50.0402308  42.8053331  49.9675608
  50.4702425  41.5242386  49.9129200  49.7410107  40.8999252  49.9057293
  50.8535194  43.7539244  50.6163311  51.7056656  43.3957672  51.1748743
  50.3020573  45.0636959  50.8380413  50.8792830  45.7809019  51.4026928
  47.8563356  46.5919542  52.9316092  48.2268572  45.4362392  53.2243776
  47.7654123  47.5491428  53.7976789  47.4420071  48.4150934  53.3906889
  48.4264469  47.7076054  55.0828028  48.6641264  46.7029381  55.4324436
  49.7277689  48.5421181  54.9320889  49.4552946  49.5974874  54.9396133
  50.4105902  48.4034872  55.7703257  50.6142092  48.1280661  53.7283707
  51.1967468  47.0900059  53.6962366  50.5536842  48.8801956  52.5930262
  51.1909723  48.6050797  51.8593502  50.0449371  49.7525597  52.6091146
  47.4867821  48.3785343  56.1518145  46.8023157  49.3663883  55.9892845
  47.6115131  47.7250767  57.3461628  48.1850863  46.8937683  57.3526478
  46.8377018  48.0193567  58.5591030  45.7814360  47.8165960  58.3821964
  47.3833323  47.2073555  59.7232008  47.4702978  46.1627293  59.4243765
  48.3545160  47.5385237  60.0909424  46.2878609  47.1885014  60.9039116
  45.9073544  48.1904221  61.1025620  45.5471563  46.4750051  60.5428267
  47.0014477  46.7923689  62.1680784  47.5884485  45.8757496  62.1102810
  47.6148224  47.6383018  62.4783516  45.9446287  46.5236568  63.3408689
  46.5332794  46.2255001  64.2084455  45.2468348  47.2911072  63.6758423
  45.1707935  45.3099632  62.9280567  44.6452188  44.9153757  63.6949825
  44.4637966  45.5104017  62.2351789  45.7236624  44.5494604  62.5591803
  47.1364546  49.4996595  58.8717747  48.2926941  49.9738407  58.7577724
  46.1090469  50.3211069  59.1566467  44.7351885  50.0006390  59.3218708
  44.5465088  48.9671516  59.6123886  44.1669035  50.1143885  58.3987141
  44.1060734  50.9631348  60.3521299  44.1244268  50.6019592  61.3803864
  43.1340265  51.1275911  59.8871756  45.0688934  52.1753550  60.1756573
  45.2222347  52.7947330  61.0593748  44.7182894  52.6885700  59.2802334
  46.4342737  51.5837669  59.9015284  47.0178127  52.1942663  59.2124081
  47.2246790  51.3770199  61.1923170  46.8230200  50.4846287  61.9491577
  48.3821869  52.0766640  61.2704325  48.5963964  52.6490688  60.4663372
  49.3880987  52.0275068  62.3080254  49.6699381  53.0505133  62.5572634
  48.9375591  51.4123201  63.0869102  50.6828976  51.3455248  61.8870306
  51.5734434  51.3229799  62.6687527  50.6805563  50.7343531  60.6206560
  49.8954964  50.8454323  59.9949932  51.8881845  50.0914431  60.0863695
  52.2295809  49.4900084  60.9288788  51.6423988  49.2762852  58.8191271
  50.9801292  49.7592115  58.1005955  52.5984573  49.1349077  58.3150768
  51.1562395  47.8552723  59.1096926  50.8767557  47.0862436  58.1132746
  51.2755966  47.3856163  60.2550697  52.9933834  51.1433315  59.6995783
  52.6788473  52.2911215  59.4419289  54.3056536  50.8096743  59.7370386
  54.4893217  49.8372030  59.9386883  55.4258251  51.7246819  59.4628048
  55.3232193  52.5040865  60.2178574  56.7844534  51.0455942  59.5900202
  56.8922520  50.3346300  58.7708664  57.6041269  51.7155027  59.3302822
  57.0443916  50.3882027  60.9882593  57.5698280  49.2438793  60.9546757
  56.6049957  50.8301926  62.0626783  55.2936745  52.4750185  58.1325722
  55.3690004  53.7177658  58.0996084  55.0592995  51.7169571  57.0272255
  55.1059389  50.7200336  57.1823835  54.7754049  52.2059870  55.6742239
  55.6258202  52.8614426  55.4863882  54.8293543  51.0115099  54.6649265
  55.6483078  50.3591299  54.9679422  53.4989643  50.1677799  54.8204947
  53.4970522  49.6435881  55.7761717  52.6412058  50.8330774  54.7218180
  53.4535265  49.3680239  54.0812778  55.0642252  51.5358305  53.2588005
  54.0675068  51.8451023  52.9441357  55.7989979  52.3263454  53.4114408
  55.7058954  50.4775190  52.3431969  56.4574003  50.9096575  51.6824436
  56.2601852  49.7313023  52.9124308  55.0574875  49.9156046  51.6709423
  53.5050392  53.0540752  55.5097151  53.5237980  53.8805532  54.6183681
  52.5593758  52.9552269  56.4718485  52.7650499  52.3970222  57.2880697
  51.4200735  53.8446045  56.5563297  50.9820700  54.0813875  55.5866909
  50.2531528  53.2494402  57.2838926  50.5754805  52.8407812  58.2416010
  49.0134764  54.1937590  57.5525808  48.2490444  53.6057377  58.0604887
  49.2641687  55.0413656  58.1904030  48.5246849  54.5984221  56.6663361
  49.7001314  52.1810722  56.3664770  48.8024569  51.6346073  56.6557074
  49.5949841  52.6004744  55.3659058  50.3539658  51.3214874  56.2191153
  51.7654419  55.1427412  57.1515036  51.4810371  56.2075043  56.5930033
  52.4922562  55.1315022  58.2809401  52.4698925  54.3268871  58.8910198
  53.0656815  56.3634586  58.8462591  52.2988176  57.0668745  59.1706419
  53.8234282  56.0565901  60.1379204  54.5545912  55.2632666  59.9825478
  54.3913269  56.9751310  60.2858019  53.0407524  55.7188988  61.3860464
  52.2450113  55.0504971  61.0572100  53.9598989  55.0087929  62.3841667
  54.6198368  54.2849159  61.9060612  54.3494701  55.7617903  63.0692434
  53.3676863  54.3855143  63.0541706  52.3426008  56.8642712  62.0203686
  52.7308416  57.8736591  61.8843365  51.3386202  56.8014765  61.6006279
  52.3408747  56.6939116  63.0969715  53.9971733  57.0788574  57.8708792
  53.9212894  58.3358622  57.7458811  54.7667885  56.3243294  57.0872068
  54.8929739  55.3305340  57.2158289  55.5089808  56.9616079  55.9678936
  56.1132812  57.8135824  56.2794399  56.3665485  55.8098888  55.4397964
  55.9297037  54.8191452  55.3145170  56.6236496  56.1527920  54.4375896
  57.6308012  55.6884241  56.2982941  57.9260921  56.5531301  56.8925905
  57.4151421  54.8742485  56.9901800  59.2527390  55.3354740  55.6107998
  59.0020895  53.9047718  54.5210266  58.1193352  53.9187527  53.8817739
  59.9279213  53.6419249  54.0093231  58.9379597  53.0779362  55.2283669
  54.6536875  57.5867462  54.8727703  54.7964668  58.7531900  54.5213175
  53.7012672  56.7894983  54.3958378  53.5628796  55.8149910  54.6223259
  52.9031801  57.3274517  53.2368517  53.5890865  57.8007030  52.5342369
  51.9962597  56.3197708  52.6470757  51.2992096  56.8859720  52.0293093
  52.5152063  55.5089045  52.1359015  51.4636850  55.9664488  53.5300398
  52.1318769  58.5801411  53.6782980  52.0726824  59.5317888  52.8734350
  51.5020132  58.6195135  54.8322058  51.6277266  57.8222656  55.4394054
  50.7642031  59.7570086  55.3971815  49.9971294  60.0027752  54.6628094
  49.9933958  59.4057703  56.7172146  49.3528175  58.5289145  56.6229582
  50.7247257  59.2176723  57.5032663  49.1487265  60.5927515  57.1816635
  49.8837233  61.3707733  57.3879623  48.4893799  60.8864641  56.3648987
  48.1497335  60.2132177  58.3439922  48.4603262  60.6996536  59.5196581
  47.1104527  59.5154095  58.1308603  51.6741848  60.9681749  55.5965185
  51.3427114  62.0292568  55.1673174  52.8967333  60.7574797  56.1361742
  53.0848455  59.8370600  56.5070343  53.8850117  61.8773890  56.2381983
  53.4076595  62.7480078  56.6879272  55.1321554  61.4491701  57.0838356
  55.5731010  60.6198454  56.5307665  55.8075905  62.3014307  57.1583128
  54.9474287  61.0163879  58.0670309  54.3929100  62.3978376  54.8277569
  54.7005129  63.5699272  54.6083689  54.5033741  61.5367270  53.7771559
  54.3822145  60.5450535  53.9255095  54.6750307  61.9769096  52.3463678
  55.4823351  62.7091360  52.3321247  55.1568317  60.7781935  51.5070343
  54.4159746  59.9867296  51.6202402  55.1605940  61.0765266  50.4586601
  56.5461540  60.2807856  51.8356562  56.6209841  60.2205944  52.9214191
  56.8000937  58.8967085  51.1502028  57.7634764  58.4574032  51.4090586
  55.9823990  58.2840300  51.5298033  56.7656469  58.9687872  50.0631332
  57.7521944  61.1322117  51.3670969  58.6321735  60.4956675  51.4595699
  57.6526737  61.3454437  50.3028011  57.7993441  62.0337963  51.9778538
  53.4418058  62.7101278  51.7101145  53.7117958  63.7602949  51.0732079
  52.2438955  62.1715689  51.8121529  52.0951176  61.2590408  52.2186756
  50.9931993  62.8221512  51.3367033  51.1822271  63.1063795  50.3015280
  49.7161627  61.9870234  51.4326525  49.9673605  61.0282946  50.9789610
  49.5272350  61.7558622  52.4809742  48.4765959  62.5940847  50.6682491
  48.3698511  63.6340761  50.9766531  48.6933613  62.5915861  49.6000242
  47.1183252  61.8895626  50.9538603  46.8286610  61.5207148  52.0757103
  46.2222290  61.9644833  50.0907516  50.8264256  64.2532015  51.9394922
  50.4847097  65.2339697  51.2787962  50.9265089  64.3709326  53.2666111
  51.1080027  63.5277271  53.7921190  50.9737825  65.6686306  53.9533663
  50.0183439  66.1735582  53.8109207  51.1442518  65.2801180  55.4186296
  51.9059610  64.5116138  55.5501175  51.5471697  66.1386251  55.9559584
  49.7950506  64.9261808  56.1208153  49.1081905  65.7649279  56.0075426
  49.4049978  64.1904736  55.4174709  49.9282265  64.4528246  57.5812101
  50.6743956  63.6592674  57.5412750  50.3183603  65.2817726  58.1717539
  48.5271120  63.9963436  57.9394436  47.9024363  64.8854256  57.8533792
  48.1187296  63.3209133  57.1877050  48.4568357  63.4592772  59.3191576
  48.7059307  64.1266060  60.0352049  47.4957228  63.2028723  59.4941378
  49.0161324  62.6234007  59.4118834  52.1005297  66.5607119  53.3856440
  51.7191029  67.7027225  53.1373882  53.3172321  66.0193253  53.0934954
  53.3927822  65.0131607  53.0485487  54.2905378  66.8205500  52.3814392
  54.4327831  67.7732134  52.8916311  55.6635475  66.0866308  52.4629068
  55.7496405  65.8253622  53.5176229  55.6088591  65.1222992  51.9577503
  56.8472719  66.7881870  51.7170620  56.6888571  66.9976282  50.6591654
  57.1354866  68.1272316  52.3507452  57.3830748  68.0617571  53.4102345
  57.9744387  68.6169434  51.8563318  56.2515688  68.7650251  52.3522711
  58.1451082  66.0306978  51.7980194  58.9789629  66.6446638  51.4576864
  58.2884407  65.8135748  52.8565168  58.1928253  65.0903034  51.2489414
  53.8163471  67.2518730  51.0078382  53.8582611  68.4556103  50.8343124
  53.2666779  66.3403559  50.1983166  53.3948135  65.3788614  50.4797506
  52.6694202  66.6567755  48.8796043  53.4395790  67.0702171  48.2284355
  52.1829510  65.3169680  48.2851410  53.0024576  64.6013546  48.2187653
  51.5739822  64.8035812  49.0292549  51.4225292  65.4510736  46.9616985
  49.9901152  65.5569267  46.9355774  49.3315077  65.4892063  47.7888393
  49.3492508  65.9637642  45.7217932  48.3025217  66.2268305  45.6822729
  50.0710392  65.9840584  44.5450258  49.5804644  66.3386202  43.6505890
  51.4422607  65.6831169  44.5067501  52.0087004  65.8324289  43.5994196
  52.1233082  65.5376530  45.7604265  53.1982756  65.4335356  45.7630968
  51.5935040  67.7532864  49.0426540  51.7113781  68.8376808  48.4371138
  50.6089306  67.6021290  49.8738909  50.5636168  66.6901970  50.3056669
  49.4579268  68.4842587  49.9569511  48.9294672  68.7171698  49.0325165
  48.3159924  67.9248190  50.7888556  48.7240744  67.7453279  51.7835140
  47.5556755  68.7035990  50.8482265  47.6955175  66.6183281  50.2190161
  48.4501743  65.8699799  49.9770164  46.7531013  65.9479237  51.2504578
  46.0830116  66.7238331  51.6206503  46.1811113  65.1412296  50.7920074
  47.3030424  65.5195665  52.0884132  46.7786932  66.9357252  48.9778948
  47.2971487  67.4593401  48.1746960  46.3962412  66.0438299  48.4815502
  45.9683132  67.5766325  49.3252087  49.7938442  69.9293709  50.5274248
  49.2802286  70.9578466  50.0455379  50.7238770  70.0242138  51.4668989
  51.0940170  69.1361475  51.7742109  51.2001610  71.3703680  51.9486380
  50.3145790  71.9811964  52.1239328  51.8007183  71.3107109  53.4145975
  51.9248390  72.2703934  53.9163017  51.0728645  70.7769489  54.0256929
  53.1744242  70.5203724  53.5461903  53.1038046  70.0568724  54.5302057
  53.2628679  69.7462654  52.7839375  54.3907833  71.3512707  53.6194181
  54.5056343  72.4774027  53.0688286  55.4238987  70.8475208  54.3034124
  56.2259531  71.4608622  54.2786598  55.4090929  70.0041294  54.8589039
  52.0835304  72.0440102  50.8751965  52.2581863  73.2650948  50.9075069
  52.7186966  71.2879992  49.9256754  52.5789070  70.2880001  49.9496174
  53.5556316  71.7769432  48.8239574  53.9565945  72.7352715  49.1540146
  54.6885872  70.7198000  48.5156870  54.2460108  69.7538328  48.2725096
  55.2127123  71.1608315  47.6678085  55.5443668  70.6566429  49.7536659
  54.9006701  70.3989887  50.5947208  56.2238979  69.8212862  49.5847559
  56.5148830  71.8435144  49.9799156  57.1457481  71.8846464  49.0919876
  55.9790802  72.7911186  50.0352669  57.2931862  71.5618896  51.2770414
  56.5826035  71.8358803  52.0568466  57.7522659  70.5742836  51.3215542
  58.4240866  72.4891472  51.2882185  59.1702557  72.2877789  50.6379986
  58.0343723  73.4031010  51.1068010  58.9034653  72.4359179  52.1756172
  52.6525688  72.2582960  47.6406240  52.9082727  73.3304596  47.0929480
  51.6226530  71.4572430  47.2456837  51.5636396  70.6012630  47.7785206
  50.4733086  71.9030619  46.4179707  50.8451605  71.9151020  45.3934288
  49.2799711  70.8955050  46.3557529  49.3475008  70.3494740  47.2967005
  47.8479290  71.4999247  46.2335777  47.1041107  70.7091045  46.1364079
  47.5976324  72.0811701  47.1210527  47.7541637  72.1629858  45.3735447
  49.4359541  69.7680807  45.3296280  50.4387093  69.3596840  45.4553175
  48.7092113  68.9679623  45.4701853  49.3180466  70.0885534  43.8527393
  49.7025061  71.0871458  43.6451149  49.8833132  69.3908310  43.2348728
  48.2555866  69.9960089  43.6275434  49.9107981  73.2681227  46.9024754
  49.4062567  74.0374613  46.1372995  49.9594116  73.6242867  48.2095146
  50.4167509  73.0011654  48.8596439  49.4597769  74.8950720  48.8220882
  48.5093164  75.1404428  48.3482647  49.2711687  74.5249081  50.3556347
  49.1383791  73.4480286  50.4595518  50.1567650  74.7997761  50.9285831
  48.1074381  75.1878309  51.0391712  46.9952917  74.6032190  50.9455347
  48.2990646  76.3474607  51.6403913  47.4608469  76.7989588  51.9775009
  49.2477369  76.6860533  51.7143726  50.4908133  76.0283041  48.5405874
  50.2937937  77.1360683  49.1337013  51.5975094  75.7537508  47.7686405
  51.8199492  74.8025894  47.5119162  52.4781990  76.7908382  47.1616840
  52.1332598  77.7288580  47.5966930  53.9412975  76.6389322  47.6675224
  54.4732332  75.7637024  47.2945356  54.4624519  77.5385141  47.3400307
  53.8823032  76.5638590  49.2590618  53.3026505  77.4366760  49.5595407
  53.4180737  75.6524515  49.6357918  55.2094507  76.6393375  49.9371767
  55.4279041  75.7911968  50.8370781  55.9667635  77.6278114  49.7099066
  52.4336195  76.9286013  45.6023884  53.1394100  77.7431822  45.0652695
  51.5500355  76.1764765  44.9329615  50.9276819  75.6243277  45.5055904
  51.3849401  76.0579729  43.5157299  52.3631239  75.7702351  43.1304169
  50.4280376  74.8908472  43.2278442  50.7693815  73.9777946  43.7156153
  49.5016670  75.1053190  43.7607098  50.2240658  74.6642065  41.7094040
  50.3025150  75.5837059  41.1293459  51.3603926  73.7483740  41.1768675
  51.3926315  72.8677464  41.8184090  51.1680746  73.3897972  40.1656628
  52.3495817  74.2043257  41.1354685  48.9308405  73.7935019  41.5349293
  48.6393881  73.7487698  40.4855680  49.0907955  72.7380848  41.7554235
  48.1482887  74.1916752  42.1808147  50.9391308  77.4083233  42.8620338
  49.8849249  77.8869581  43.1622791  51.7623043  77.9790545  41.9382000
  52.9594040  77.4431610  41.3727808  52.9740810  76.3588810  41.2622595
  53.8339758  77.8302145  41.8956757  53.0016661  78.0450583  39.9197626
  52.1707773  77.7479267  39.2798901  53.9796495  77.9450941  39.4489598
  52.5949097  79.4533014  40.2237606  52.2397804  79.9019718  39.2960358
  53.4182310  80.0221825  40.6557512  51.4485312  79.2077589  41.2483883
  51.3525963  80.0595379  41.9217205  50.1140642  79.2232752  40.3917074
  49.7862196  78.2993984  39.6811175  49.5043230  80.4128265  40.4486179
  49.8800850  81.1155033  41.0692310  48.2126284  80.7777882  39.8319030
  48.2476091  80.5037975  38.7774801  47.1288490  79.8313904  40.2916861
  47.3053265  78.7951756  40.0032187  47.0150566  79.9378300  41.8642426
  46.9671822  80.9674263  42.2188520  46.2107754  79.3378782  42.2900152
  47.8850508  79.5033598  42.3566294  45.9156370  80.0685692  39.6732211
  45.8500910  81.0075188  39.4843245  47.8247738  82.2922421  40.0134993
  46.7178965  82.6508331  39.5566845  48.5180235  83.1136227  40.5585480
  90.9022331  44.0401316  29.8323369  90.1235485  43.4708023  30.1316857
  91.1145592  43.6738205  28.9153671  90.5564022  44.9890089  29.8440838
  92.0988274  43.7802887  30.7494497  92.4763584  42.7766323  30.5538821
  93.1366920  44.8728418  30.5014277  92.6558876  45.8280277  30.7124972
  93.8395119  44.7572184  31.3265228  93.8502312  44.8164558  29.1201878
  94.3596268  43.8530970  29.1438222  93.1442738  44.8674488  28.2912493
  94.9962616  45.7907772  29.0289760  94.6846008  46.7900181  29.3330860
  95.7494068  45.4092884  29.7184277  95.5494976  45.8815670  27.5874043
  96.6244888  45.7142162  27.5204253  95.2125072  44.9717236  27.0906973
  95.0720119  47.0633316  26.7487097  94.0677738  46.9677162  26.7982459
  95.2199745  47.9810762  27.1436214  95.4673958  47.0176220  25.8204389
  91.6791534  43.8115549  32.1896744  90.9102631  44.6610260  32.5812054
  92.1465874  42.8522730  32.9709458  92.8437138  42.2167110  32.6101398
  91.7404842  42.6450729  34.3563652  90.6903934  42.3617887  34.4283175
  92.4935055  41.4313793  34.8498011  93.5147572  41.6063023  34.5113325
  92.4500084  41.3885689  36.3260961  93.0472660  40.5357599  36.6487360
  92.9166317  42.2516203  36.8009734  91.4077377  41.3277006  36.6392541
  92.0385742  40.0866270  34.3639088  91.7708969  40.0855207  33.3072853
  92.8872299  39.4157147  34.4971752  91.1544323  39.8197198  34.9428368
  91.9535065  43.9719963  35.1318169  91.1795998  44.3984175  35.9419751
  93.0573845  44.6341419  34.9175620  93.7407398  44.2177200  34.3013477
  93.4071541  45.9135437  35.6396222  93.4714890  45.7609081  36.7169619
  94.6510887  46.5898275  35.1640415  94.7626114  47.4186707  35.8631063
  95.5509377  45.9797621  35.2427292  94.6232891  47.1918583  33.8178897
  94.7933578  48.1365919  33.8306069  92.2897530  47.0111179  35.5392241
  92.0114994  47.7032328  36.5013289  91.6529083  47.0907307  34.4152761
  91.9542503  46.4879656  33.6629701  90.5727196  48.0205441  34.1385388
  90.7170677  48.9845943  34.6262527  90.4049778  48.0093336  32.6128125
  90.4718018  47.0417213  32.1154571  89.4337082  48.3868361  32.2931004
  91.4203644  48.9117813  31.8536782  92.4476242  48.5528898  31.7902517
  91.1158085  48.9838743  30.8095765  91.4076328  50.3527069  32.3783755
  90.4130936  50.8471251  32.9509997  92.4305439  51.0343838  32.2695136
  89.2099857  47.4830151  34.6121621  88.3043194  48.2965136  34.9374080
  88.9758015  46.1863470  34.6188807  89.7320938  45.5621672  34.3769860
  87.8314686  45.5460501  35.3125978  86.9791317  46.1159849  34.9427366
  87.7280807  44.0767288  34.8246789  88.5678673  43.4552336  35.1354980
  86.8148422  43.7417650  35.3165126  87.4986076  43.9007139  33.3580518
  86.6014957  44.4808006  33.1417203  88.3506966  44.3136454  32.8181267
  87.1668625  42.4499846  32.9757380  87.6170826  41.5305042  33.5754800
  86.2659931  42.3339272  32.0381761  85.8867550  41.4012241  31.9585586
  85.9406853  43.1821632  31.5968466  87.9090309  45.8217287  36.7778635
  86.8994522  46.1479998  37.4247742  89.1015434  45.8130407  37.3484969
  89.7998524  45.4266453  36.7294955  89.4111061  46.1853647  38.7433743
  88.7246323  45.5546618  39.3082428  90.8442497  45.7702017  39.0213895
  91.4435291  46.1700058  38.2033873  91.2485409  46.2568760  39.9089694
  91.0012436  44.2499447  39.1963601  90.5604076  43.7470055  38.3356524
  92.4639797  43.8931084  39.2895317  92.9839897  44.2715311  38.4094834
  92.8669357  44.3291950  40.2036190  92.5619316  42.8136206  39.4045019
  90.3826332  43.5422993  40.4372978  90.6954670  42.4992943  40.4860497
  90.6439781  44.0518522  41.3647413  89.2938614  43.5533476  40.3869057
  89.0796661  47.6640224  39.0090871  88.2825470  47.9335690  39.9259162
  89.4815159  48.5921431  38.1144810  90.2468777  48.3780050  37.4912119
  89.0818787  49.9766731  38.1161475  89.2422485  50.4145575  39.1013598
  89.9189758  50.7800913  37.0967793  90.2673531  50.0580025  36.3583183
  89.3395233  51.6510153  36.7904592  91.1538887  51.4986467  37.6610494
  91.6382408  50.6433916  38.1322598  91.6262150  51.8671227  36.7504263
  91.0752583  52.6317596  38.6077690  90.4717827  52.3227262  39.4612408
  92.0666409  52.9735947  38.9051032  90.3617668  53.8542747  37.9033351
  91.1020851  54.0964460  37.1408463  89.3855286  53.5645914  37.5145602
  90.3705692  55.0166082  38.8049698  91.2614536  55.4749775  38.9327145
  89.7384453  55.7543898  38.5289311  90.0112152  54.7947645  39.7224355
  87.5911903  50.2218628  37.8920984  87.0433044  51.0586834  38.6147356
  86.9473457  49.5355988  36.9612312  87.3492050  48.8703632  36.3161969
  85.5026245  49.6024990  36.8592739  85.3878117  50.6470966  36.5699148
  85.0306320  48.6994362  35.6709099  85.5573463  49.0534067  34.7846913
  85.3378201  47.6600504  35.7867622  83.2231808  48.8024139  35.4949689
  83.3028030  49.8206520  34.6337247  84.8145008  49.1478491  38.2037330
  83.8971138  49.8297262  38.5392141  85.2237797  48.0771971  38.8691568
  86.1170864  47.7046299  38.5805178  84.6749973  47.5650787  40.1324701
  83.5914516  47.4895525  40.0411987  85.3154945  46.1461639  40.4161406
  86.4017487  46.1660671  40.3280878  85.2052116  45.9177828  41.4762211
  84.7136211  44.7627258  39.3895960  85.0280476  45.1728821  38.1576037
  84.9190521  48.4976006  41.3012600  83.9933014  48.6998749  42.0570087
  86.0542965  49.1158915  41.4359760  86.8582726  48.9362049  40.8516550
  86.2105465  50.2636814  42.2459459  86.1240196  49.9653101  43.2907391
  87.6756763  50.7089710  42.0967627  88.2849503  49.8259830  42.2896957
  87.8420830  51.0356474  41.0702705  88.0023766  51.7651939  42.9581785
  88.9386749  51.8672752  42.7723980  85.2145195  51.3495874  41.9574165
  84.5627689  51.9045591  42.8106833  84.9968243  51.6187811  40.6909561
  85.6420135  51.1524820  40.0693369  83.9426517  52.4650240  40.1578951
  84.1434860  53.4020472  40.6772757  83.9223862  52.5851536  39.0747261
  82.5371170  52.0829821  40.6219101  81.7932892  52.8533220  41.1281586
  82.2075844  50.8056211  40.6228209  82.8229046  50.1144457  40.2181530
  80.8809090  50.2512741  41.2138033  80.1570225  50.9748554  40.8389378
  80.6171417  48.7593985  40.7876921  81.3993645  48.1371307  41.2224436
  79.3737555  48.1311226  41.4138842  79.4583416  47.0740271  41.1618900
  79.3594122  48.2577467  42.4964046  78.5139942  48.6323690  40.9692764
  80.7508659  48.4886026  39.2160296  80.0380993  49.0429258  38.6054635
  81.7404366  48.7847662  38.8679743  80.5846024  46.9760466  38.8929057
  79.5834303  46.6182518  39.1331983  80.6470108  46.8175077  37.8163028
  81.3386345  46.4361382  39.4656539  80.7471561  50.3883696  42.7407551
  79.6794748  50.8486414  43.2342339  81.8672180  50.1992130  43.4834146
  82.6905155  49.7717810  43.0839348  81.9463348  50.5116224  44.8914766
  81.0447693  50.0288677  45.2686024  83.2423878  49.8931885  45.5256844
  83.1576729  48.8394403  45.2600813  84.1435146  50.3660250  45.1351786
  83.2635307  50.0248432  47.0239449  83.1014919  51.0338402  47.4031210
  82.3032665  48.9861488  47.7136612  82.6197720  48.0063248  47.3560762
  82.4446106  49.2452574  48.7629414  81.2869263  49.2839718  47.4558640
  84.7193432  49.6531773  47.4467134  85.1084232  48.8682175  46.7982006
  85.3815556  50.5138731  47.3530006  84.7824383  49.3118286  48.4799623
  81.8359375  52.0043468  45.2314043  81.3000202  52.4015617  46.2708235
  82.3222160  52.8981352  44.3693304  82.9233265  52.5607824  43.6311102
  82.1790791  54.3446779  44.4375706  82.2809887  54.7149229  45.4576826
  83.3457375  54.9602079  43.6142302  83.5538197  54.3421412  42.7408457
  83.1391430  55.9714699  43.2638550  84.5818615  55.0342083  44.4857740
  84.3739510  55.6638336  45.3508997  84.9429321  54.0546274  44.7990799
  85.7802582  55.6794071  43.7117147  85.4961872  56.6067171  43.2142210
  86.5021229  55.9415245  44.4852209  86.4314270  54.6357775  42.8388834
  86.4586544  53.6303663  43.2590103  85.8802700  54.6427870  41.8985224
  87.8005219  54.9308729  42.4895811  87.7200127  55.7530069  41.9084501
  88.3518219  55.1544619  43.3057833  88.3056831  54.2516994  41.9385433
  80.7437325  54.7749710  43.9758825  80.1435471  55.6582975  44.5555115
  80.1127434  54.1527271  42.9713202  80.6387901  53.3987093  42.5531912
  78.6718750  54.2904139  42.5988388  78.4728432  55.3386450  42.3758936
  78.4219456  53.5324955  41.3040638  79.1705608  53.6173916  40.5163622
  78.3898449  52.4639368  41.5167761  77.0641422  53.8004160  40.6844568
  76.9722128  53.0915356  39.8615742  76.2608147  53.6607122  41.4078140
  76.8934107  55.1807070  40.0646925  77.7350760  55.6862640  39.2978883
  75.7560062  55.7043171  40.1261044  77.7434063  53.7948418  43.6706591
  76.6557837  54.4195032  43.8686228  77.9490900  52.7327919  44.4043922
  78.6955547  52.1064711  44.1386604  77.1845913  52.3871899  45.5889130
  76.1314058  52.5424862  45.3548384  77.4525356  50.8954048  45.9734964
  78.5321283  50.7780695  46.0673428  77.0341015  50.6091833  46.9384241
  77.0189095  49.8568726  44.9110603  75.9740114  49.9946117  44.6329927
  77.6504993  50.0634813  44.0470600  77.0514011  48.1321287  45.4913568
  78.6906052  47.9457474  46.1817026  78.8331842  46.8845987  46.3859940
  79.4086552  48.2023239  45.4028082  78.8596821  48.5143852  47.0961237
  77.4178076  53.2207870  46.9104958  76.4218140  53.4739447  47.5629234
  78.5924196  53.7382507  47.2370195  79.3762445  53.3065414  46.7686749
  78.8148212  54.7830200  48.2884979  78.3040857  54.4162512  49.1788530
  80.3585625  54.9320412  48.5426760  80.8265114  54.6617174  47.5960732
  80.6091785  55.9577465  48.8132858  80.8771992  54.0545893  49.7422695
  81.8885517  53.1253529  49.5937157  82.2144794  53.1274843  48.5640717
  82.4330235  52.2800255  50.5564308  83.1626034  51.5384340  50.2663422
  81.8258476  52.4470472  51.8601131  82.3131657  51.9316721  52.6745605
  80.7480049  53.2961512  52.1442032  80.2989960  53.3355141  53.1256533
  80.2425861  54.0569448  50.9932995  79.4055271  54.7364187  51.0569000
  78.1338310  56.1217356  48.0252409  78.3965445  57.0304585  48.7691927
  77.5097418  56.3252354  46.8776464  77.4092484  55.4799032  46.3341284
  76.9186783  57.5838947  46.4104843  77.7407551  58.2960606  46.4820147
  76.4626932  57.4488449  44.9399328  76.2923622  58.4364510  44.5112944
  77.2269487  57.0451975  44.2757845  75.5832434  56.8052387  44.9191427
  75.8100510  58.1206656  47.3742819  74.7920847  57.4111462  47.7107096
  75.9480858  59.4216490  47.8413057  76.8259621  59.8468399  47.5792789
  75.0630665  60.0914001  48.7914753  75.3477859  59.6976709  49.7671938
  75.3072739  61.5444565  48.8251877  75.0311327  61.9444513  47.8495598
  74.5535994  62.0441818  49.4337511  76.6853619  61.9742537  49.3332291
  76.6916752  61.6383314  50.3701544  77.4649906  61.4922523  48.7433577
  76.9518375  63.5188770  49.3805361  78.0301619  63.5475683  49.2240238
  76.4830637  63.9846945  48.5137224  76.4699030  64.1763115  50.5965090
  75.3998137  63.9855385  50.6778526  76.9260168  63.7118196  51.4707565
  76.6899204  65.6273317  50.5722141  76.2051487  66.0734320  51.3377762
  77.6245737  66.0083628  50.5354834  76.3131142  66.1095524  49.7687340
  73.5669136  59.9097490  48.6013126  72.9060888  59.8102665  49.6247387
  73.1205273  59.9697590  47.3440361  73.7618303  60.3006458  46.6373920
  71.8487358  59.4645643  46.7549086  71.0534811  60.0989723  47.1463108
  71.9493389  59.5596457  45.2511024  70.9392071  59.5594549  44.8415518
  72.4348164  60.4768848  44.9178076  72.6425552  58.3709669  44.6404696
  73.5324478  58.1014872  45.2093029  72.0431852  57.4681044  44.7575378
  72.9460907  58.6411095  43.1326771  71.9809484  58.9154482  42.7068329
  73.6443043  59.4773769  43.0972481  73.6464834  57.4605942  42.3727560
  74.4883537  57.1824884  43.0067968  72.8936768  56.6725922  42.3936939
  74.0367985  57.9355097  41.0147810  74.6589756  57.2440910  40.6211567
  73.1895399  58.1461382  40.5069590  74.5781946  58.7880468  41.0013294
  71.3139009  58.1068373  47.2998524  70.1160669  57.8465796  47.2358227
  72.1507883  57.1879053  47.8472233  73.1338978  57.3660660  47.6993656
  71.6810894  55.8978081  48.3446836  70.6661654  55.7503366  47.9755211
  72.5875521  54.7999382  47.8283358  73.6111450  54.8329687  48.2015133
  72.2385836  53.8501358  48.2335472  72.6902962  54.6284056  46.3271761
  71.6567421  54.2122698  45.4653597  72.2497892  54.0616655  44.2510700
  71.7283583  53.7751389  43.3497334  73.5274363  54.5053196  44.3310690
  74.1134596  54.6292830  43.5178566  73.8568258  54.8266554  45.6074333
  74.7852612  55.0659466  46.1045742  71.6031599  55.7868433  49.8357153
  70.9960604  54.8316002  50.3402472  72.1183777  56.7579937  50.6110001
  72.3478603  57.6374769  50.1706076  72.2198343  56.7614460  52.0188856
  72.8340292  55.9246206  52.3514318  72.9713774  57.9530478  52.5222111
  73.9867783  58.0053377  52.1293640  72.4202251  58.8368368  52.2008848
  72.9040051  58.0571175  53.6051416  70.8601236  56.6484737  52.7533627
  70.7703304  55.9953976  53.7807655  69.7332907  57.1308517  52.1557331
  69.8739004  57.5279379  51.2377739  68.4133959  56.8019199  52.7021980
  68.3800936  57.2619200  53.6898184  67.3379612  57.4941015  51.9047070
  67.1095848  56.8418884  51.0617590  66.4952421  57.5630569  52.5925875
  67.6693869  58.4902573  51.6115522  68.1091595  55.2493095  52.9188585
  67.3178864  54.9454212  53.8869667  68.6513758  54.3255806  52.1484756
  69.3162298  54.5971394  51.4383173  68.4454060  52.9316950  52.3171902
  67.9732513  52.8233385  53.2936287  67.4774647  52.5279379  51.1957598
  66.9768476  51.5819073  51.4019632  66.7915010  53.3617449  51.0463762
  68.1527519  52.2671700  49.8596382  68.5444641  50.9507036  49.4670773
  68.3929491  50.0666189  50.0686121  69.2674351  50.8126163  48.2803488
  69.6834421  49.8497534  48.0229902  69.5245123  51.8880939  47.4125671
  70.2048922  51.6892672  46.2154293  70.6753540  52.4663925  45.9050417
  69.0136528  53.1708384  47.7343178  69.1066551  54.0005875  47.0492887
  68.4168625  53.3714533  48.9707232  67.9927540  54.3319654  49.2236280
  69.6669483  51.9990396  52.3680305  69.5627832  50.8439398  52.7675533
  70.8118916  52.4601698  51.8508863  70.8732271  53.4353304  51.5951681
  72.0617485  51.7297268  51.6946983  71.8783426  50.6612635  51.5813255
  72.7800655  52.1524668  50.4432774  72.8416157  53.2407141  50.4371738
  73.7675238  51.6918612  50.4137659  72.1835709  51.8001938  49.6017313
  73.0066681  51.8181324  52.9410124  74.0257072  51.0944986  53.0697823
  72.7106094  52.6917505  53.9252853  71.9319057  53.3239651  53.8068199
  73.4522867  52.8329325  55.1295996  74.3863058  53.3354664  54.8782682
  72.6975107  53.8511753  55.9141684  73.3031654  54.1926050  56.7536354
  72.4644184  54.7235918  55.3037119  71.4234829  53.5148668  56.5839767
  70.2073908  53.8434124  56.1575365  70.0152540  54.5111179  55.3307056
  69.2468834  53.4872198  57.0882750  68.2655191  53.6664677  56.9305038
  69.7696304  52.7691317  58.1473160  69.1805315  52.1262407  59.3110228
  68.1508303  52.2958851  59.5891190  70.0417089  51.3151407  60.0763941
  69.7365713  50.8480263  61.0011101  71.3967133  51.2019873  59.7310448
  72.1216583  50.7450342  60.3883505  71.9959927  51.8964911  58.6471987
  73.0497599  51.7981339  58.4320211  71.1535406  52.6335573  57.7705526
  73.7486839  51.4898062  55.8437347  74.8355961  51.4381123  56.4589691
  72.9743004  50.3356457  55.9272766  71.5666199  50.1641893  55.5074453
  71.3818026  49.8841572  54.4703674  70.9431696  51.0234976  55.7544565
  70.9941769  49.0558386  56.4539051  70.2353907  48.4457302  55.9638977
  70.7239342  49.5268822  57.3989868  72.1507359  48.1954765  56.7017269
  72.2947836  47.4815416  55.8907747  72.1120214  47.8274393  57.7269840
  73.3490419  49.1443872  56.6632175  73.6680746  49.5434570  57.6260614
  74.6219254  48.3725691  56.1154938  75.3153658  47.6702452  56.7772341
  74.9526882  48.5977888  54.8362923  74.2610931  49.0607548  54.2640543
  76.1004925  48.0125904  54.1554165  76.4869356  47.1400452  54.6821404
  75.5970430  47.6547623  52.7222013  75.8221197  48.4399939  52.0004988
  76.1753750  46.7908525  52.3946285  74.1549444  47.1393299  52.7303076
  73.8629103  45.8851004  53.2452726  74.6134949  45.2300692  53.6623621
  72.4864817  45.4706860  53.2707405  72.2053242  44.4637823  53.5418415
  71.4968681  46.3504124  52.7892780  70.4834700  45.9989691  52.6631355
  71.8164539  47.6271439  52.2912455  71.0383463  48.3317280  52.0372486
  73.1290340  48.0384445  52.2647476  73.4681320  49.0241814  51.9823647
  77.2953081  48.8917780  54.1370344  78.3714628  48.4189653  53.7724924
  77.2527695  50.1409483  54.6674442  76.4343119  50.2972364  55.2382421
  78.2974052  51.1636829  54.8453569  78.8956881  51.1572790  53.9342451
  77.5000620  52.4544382  54.7980928  76.7199755  52.4293947  55.5589724
  78.1352806  53.2275772  55.2303553  76.9429016  52.9996443  53.5116911
  77.0128965  52.3240137  52.2889757  77.4542332  51.3450289  52.1740627
  76.4562035  52.8723574  51.1384869  76.5498209  52.2974920  50.2290010
  75.9234285  54.2134953  51.1023426  75.4580450  54.7943735  49.9582815
  75.8017397  54.3712759  49.1680527  75.9187126  54.8984528  52.3451471
  75.5221319  55.9023666  52.3808813  76.3823986  54.3046427  53.5381222
  76.3552427  54.9627352  54.3940306  79.2707157  50.9960318  56.0075235
  80.1288605  51.8591785  56.1424541  79.2292738  49.8513508  56.8268919
  78.5204411  49.1591740  56.6305542  80.1253605  49.4591475  57.9570055
  81.1534119  49.6237898  57.6343441  79.7936201  50.4453230  59.1040230
  80.6036854  50.3001451  59.8187399  79.9320650  51.4704227  58.7603521
  78.4124708  50.3298092  59.7820950  77.6402807  50.1882553  59.0259266
  78.3984280  49.4566345  60.4343700  78.0786276  51.5449810  60.6171846
  78.2531261  52.4925709  60.1075554  77.0260811  51.4242554  60.8734608
  78.8714886  51.4443970  61.9002533  78.5914612  50.6889963  62.6344538
  79.8780060  51.2288284  61.5417147  78.8964319  52.7767563  62.6463747
  79.3508053  52.6711369  63.5421944  79.3516684  53.4799385  62.0821142
  77.9857445  53.1865072  62.7975607  79.8996973  47.9691267  58.3139706
  78.8120031  47.3879719  58.0373335  80.8540058  47.3322105  58.9892769
  82.0727730  47.8949118  59.4083691  81.8859005  48.6868620  60.1336241
  82.5755215  48.3713055  58.5667086  83.0093575  46.7840099  59.9165010
  83.6521435  47.2251654  60.6782818  83.4916878  46.1496067  59.1728735
  81.9797134  45.9011936  60.6349039  81.7601585  46.2877178  61.6301441
  82.3231983  44.8689556  60.7028055  80.7693481  46.0539293  59.6700478
  80.7531643  45.2745819  58.9081717  79.4554329  46.0629368  60.5565834
  79.2575788  46.9681740  61.3550282  78.6200762  45.0080252  60.4513121
  78.7637138  44.3408442  59.7067738  77.6326180  44.7759867  61.5479755
  76.9244146  45.6045246  61.5390968  76.8556261  43.4790945  61.3856316
  77.4880648  42.6500034  61.7030191  75.5669022  43.4670305  62.1775103
  74.8800516  42.6979256  61.8242121  75.7904148  43.3916664  63.2416868
  74.9948788  44.3757915  61.9903088  76.5331221  43.3451366  59.8926210
  77.4566174  43.0467796  59.3964005  75.8416033  42.5041771  59.8407555
  76.0640764  44.2367077  59.4764423  78.3360767  44.7359037  62.8800154
  79.3919420  44.1109753  62.9925203  77.7905655  45.3836060  63.8960171
  76.9743061  45.9463167  63.7032127  78.4412956  45.3989315  65.2972269
  79.5080328  45.1909733  65.2140331  78.2802820  46.7515230  65.8524370
  77.2094631  46.9433117  65.9207821  78.5583544  46.6090107  66.8966913
  79.1206169  47.7977753  65.0851822  78.5418797  48.8611698  64.7171688
  80.2833557  47.6012945  64.6762562  77.7161360  44.2183399  66.0611773
  76.6784048  44.4873142  66.7031240  78.1880236  43.0118990  65.7843494
  78.8955784  42.9549026  65.0658655  77.3727703  41.7654181  65.9178925
  76.5473890  41.9475174  65.2296352  78.0393314  40.4768467  65.4514980
  77.2502327  39.7266221  65.5024385  78.3854246  40.5722046  63.9938164
  79.2035151  41.2808752  63.8649035  78.8210440  39.6545672  63.5984993
  77.5885248  40.9143543  63.3335257  79.2497635  39.9754333  66.2848473
  78.8091564  39.5353389  67.1794367  79.8215246  39.2070484  65.7644892
  79.8101997  40.8556890  66.5997458  76.8139744  41.5157986  67.3321438
  75.5489731  41.5177727  67.4664688  77.6604033  41.4280891  68.3804274
  78.6657190  41.4292479  68.2832670  77.2657204  41.4536619  69.7683764
  76.6468143  40.5850267  69.9931812  78.5366917  41.3264132  70.6471872
  78.2632494  41.2459946  71.6992617  79.1081572  40.4310274  70.4026270
  79.4824171  42.5097132  70.5215025  78.9207315  43.4230852  70.7173586
  80.2116585  42.3516560  71.3160610  80.1643276  42.7565241  69.1744471
  79.9205303  43.7555265  68.4982538  80.9709358  41.8965149  68.7773848
  76.4697027  42.6615429  70.2045488  75.6300640  42.4487305  71.1075878
  76.6759443  43.8673592  69.6317768  77.2810078  43.9428568  68.8266039
  76.0944033  45.0900221  70.0599766  76.1360121  45.0324297  71.1476612
  77.0041990  46.2514687  69.6027327  78.0498743  45.9920168  69.7680950
  76.8899155  46.5508699  68.5609055  76.7961359  47.1604919  70.1670790
  74.5845366  45.1059484  69.6348572  73.8245344  45.7696390  70.3399849
  74.2798185  44.4012833  68.5656595  75.0834560  44.0600491  68.0578947
  72.9045916  44.1168737  68.0690002  72.2935295  44.9174738  68.4858084
  72.8644037  44.1671419  66.5034771  73.6155844  43.5035467  66.0751438
  71.9995594  43.6757183  66.0577917  73.0241728  45.6055689  65.9376192
  73.8202381  46.0752535  66.5153551  73.6012220  45.5335808  64.4850206
  72.9532814  44.9821615  63.8036919  73.8179064  46.5729904  64.2384863
  74.5659351  45.0267410  64.5083857  71.6751957  46.3513803  65.9202862
  71.1179304  46.1873531  66.8425894  71.8551683  47.4190998  65.7950354
  71.0167742  45.9996033  65.1260376  72.4288177  42.7228785  68.5301495
  71.3679838  42.2951651  68.1494713  73.2107687  42.1486378  69.4622803
  74.1260815  42.5443649  69.6226120  72.8404331  40.9770489  70.2741146
  73.3181667  40.9361649  71.2529898  71.7704964  41.1380482  70.4060888
  73.0228615  39.6582747  69.5177174  72.5088835  38.6235809  69.9383879
  73.6821651  39.6631265  68.4147072  74.0715647  40.5437756  68.1098652
  74.0313482  38.5760641  67.5769424  73.2915497  37.7949452  67.7520514
  73.9624262  39.0349174  66.0742712  74.8080301  39.7089744  65.9375143
  74.0339899  38.1367135  65.4609108  72.7493143  39.8612261  65.6871605
  72.6984596  40.8549309  66.1322069  72.8106499  40.1317406  64.1687250
  72.7826071  39.2074132  63.5917234  71.9784737  40.7895088  63.9178658
  73.7638617  40.5768919  63.8835335  71.4671946  39.1192389  66.0388231
  71.1779594  39.3614221  67.0614672  70.6272697  39.3741584  65.3925705
  71.6381454  38.0485249  65.9272575  75.3925514  38.0407047  67.9931021
  76.3562298  37.8870678  67.2155333  75.5042648  37.6081395  69.2353964
  74.6088409  37.7033615  69.6928406  76.6674089  36.9299102  69.8250198
  77.4528551  37.6816082  69.7467613  76.3555765  36.5579414  71.2819815
  75.5732441  35.7993937  71.3077450  77.3280573  36.2249422  71.6446018
  76.0452414  37.7698302  72.1218872  74.9322701  38.5981154  72.0080233
  75.2457142  39.7581053  72.6342487  74.6876526  40.6821632  72.6672649
  76.4421034  39.6148252  73.2591152  76.9947720  40.3867149  73.6038542
  76.9468546  38.3909965  72.9416037  77.9394484  37.9837751  73.0654192
  77.2347784  35.7732892  68.9774418  78.4263754  35.5658627  68.9405298
  76.3323975  35.1049662  68.2869148  75.3699112  35.1707745  68.5858965
  76.6359472  33.9335585  67.3769808  77.6512480  33.5773158  67.5512266
  75.7617807  32.7506518  67.7794361  76.1550951  31.8223023  67.3652267
  75.8020973  32.5808907  68.8553810  74.3103409  32.6913166  67.2114611
  73.8189030  31.5118146  67.1271992  73.7425756  33.7433672  66.9205999
  76.5916348  34.3017268  65.9113646  76.6169119  33.3910298  65.1311111
  76.5056133  35.5986595  65.4546785  76.3496351  36.4041495  66.0437059
  76.5574694  35.9143400  64.0638876  75.6474209  35.5890107  63.5598278
  76.7454576  37.4057913  63.8625431  76.1025381  38.0021238  64.5099497
  77.6377296  37.7752447  64.3679714  76.7366838  37.9053712  62.4009752
  75.4100084  38.2783413  61.9936800  74.5388794  38.2145238  62.6288748
  75.2634096  38.9382315  60.7154655  74.3280554  39.3696427  60.3908110
  76.4390802  39.0670061  59.8648977  76.4007187  39.6822548  58.6514997
  77.2744942  39.8697901  58.3008623  77.7507734  38.6404634  60.3183174
  78.5816383  38.8390946  59.6575499  77.8610516  38.0621481  61.5584421
  78.8521481  37.7620173  61.8651247  77.6353455  35.1899433  63.2451153
  77.4093628  34.6368289  62.1771908  78.8492537  35.1181149  63.7961769
  79.1295815  35.6384063  64.6152115  79.9379683  34.4397879  63.1696224
  79.9666691  34.6297503  62.0966864  81.2963009  34.8575211  63.7232018
  81.3786316  34.5782542  64.7735977  81.9965744  34.2160726  63.1881666
  81.5618324  36.6015124  63.4463072  82.3784161  36.5432882  62.3905134
  79.8552799  32.8770995  63.1832981  80.4780769  32.3300958  62.3041630
  79.0342760  32.2140121  64.0205956  78.6743784  32.7260804  64.8132896
  78.7931538  30.8147693  63.9180231  79.7384167  30.3003764  63.7448835
  78.0976963  30.3410935  65.2420139  77.0174360  30.4860520  65.2307701
  78.2005072  29.2692399  65.4113102  78.5325336  30.8716679  66.5974998
  78.1704283  30.3696084  67.6459932  79.3447113  31.8055367  66.7177534
  77.8534365  30.4387164  62.7753210  77.7213764  29.2653155  62.6048231
  77.3436451  31.4114642  62.0292521  77.4194956  32.3678923  62.3448372
  76.5388107  31.0845590  60.8556461  76.5102482  30.0288677  60.5858374
  75.0826168  31.5134978  61.0502625  75.1921272  32.4440742  61.6071653
  74.2358351  31.7283154  59.7356749  73.1980753  31.9777489  59.9569035
  74.5972633  32.4276710  58.9817715  74.3225861  30.7925200  59.1835308
  74.2671490  30.5108380  61.9575357  74.1768312  29.5115352  61.5317011
  74.7940397  30.3358316  62.8955412  72.9036760  31.0899711  62.4027443
  72.2596979  31.3162279  61.5529203  72.3531580  30.4257441  63.0689526
  73.1233835  32.0210171  62.9252243  77.2343206  31.7335367  59.5877028
  77.4690580  31.0668993  58.5843277  77.6733017  32.9365849  59.6836662
  77.4479008  33.4466314  60.5257750  78.3634186  33.6831975  58.6372995
  78.0077076  33.3853674  57.6509523  78.1358624  35.1527119  58.8626909
  78.4543085  35.4439354  59.8636341  78.8411427  35.9870529  57.7332449
  78.8337994  35.4937768  56.7612743  78.2815313  36.9059658  57.5584936
  79.8657990  36.2678337  57.9768515  76.6211605  35.4713225  58.7498283
  76.0939550  35.0432158  59.6023989  76.5342951  36.5563631  58.8067198
  75.7911205  34.9642849  57.5483656  75.8429670  33.8759041  57.5193357
  74.7981262  35.3803563  57.7185059  76.2087345  35.4476047  56.6651344
  79.8672676  33.3026290  58.6103821  80.6863499  33.8906193  59.3054199
  80.2526379  32.3960805  57.7460051  79.5135307  31.9340777  57.2357368
  81.5970421  31.9614673  57.5223684  81.9013023  31.3649249  58.3824062
  81.5056419  31.0625124  56.2532377  80.8023739  30.2320504  56.3152361
  81.2289429  31.7319155  55.4387236  82.8079128  30.4072356  55.9001398
  83.5675430  31.1393785  55.6262350  83.2666588  29.9449229  56.7741632
  82.6834679  29.3370056  54.7656631  82.3525143  28.3479309  55.0823641
  82.0302010  29.7917366  54.0209818  84.1085625  29.0768862  54.3212605
  84.6054554  29.9731779  53.9499760  84.7234154  28.8509035  55.1924610
  84.2284298  28.0512238  53.2643223  83.6393452  28.2470322  52.4676228
  85.2019405  27.9582500  53.0118799  83.9585400  27.1215558  53.5523987
  82.5835419  33.0665326  57.2973490  83.7308693  33.0190730  57.8131914
  82.2137928  34.0375495  56.5382099  81.3094711  33.9966512  56.0902929
  83.1570911  35.1363468  56.1378765  83.9726067  35.2500057  56.8520975
  83.9348125  34.6148491  54.8981571  84.3350697  33.6406994  55.1790857
  83.1224060  34.5118809  54.1787815  85.1189613  35.4664707  54.3701029
  86.1652946  35.0200748  53.5759258  86.9573116  36.0418868  53.2439184
  87.8626442  35.9809732  52.6581955  86.3556480  37.1796179  53.6443281
  86.8455315  38.0618930  53.6029673  85.2604103  36.8611169  54.4537401
  84.5951176  37.5149131  54.9981165  82.4229813  36.4440012  56.0217714
  81.9293976  36.8207788  54.9517632  82.3687077  37.2539520  57.1514177
  82.6846027  36.8020296  58.5169315  83.7480354  36.6367173  58.6897898
  82.2585583  35.8356357  58.7865019  82.0193768  37.8825927  59.4379568
  82.6568508  38.0137706  60.3123236  81.0768032  37.4727106  59.8008108
  81.8958378  39.1184235  58.5280371  82.8550339  39.6360636  58.5377216
  81.0866070  39.7740841  58.8495255  81.7307949  38.5979676  57.1493959
  80.6639290  38.4556890  56.9771624  82.3419666  39.5712137  56.1138487
  83.5631084  39.6077538  55.9863615  81.4909554  40.4301453  55.5269241
  80.5532455  40.5578852  55.8797598  81.9690704  41.3838339  54.5274115
  82.9523468  41.7249727  54.8512888  82.0083618  40.6637526  53.1745815
  82.6496696  39.7843766  53.2338905  80.9930897  40.4613352  52.8334761
  82.5419331  41.6261530  52.0743656  82.4567986  41.1227512  51.1113358
  81.9168949  42.5053406  51.9179726  84.2048645  42.3004723  52.4623585
  85.0312996  40.8126926  52.9622316  86.0642147  41.1413860  52.8476048
  84.8751926  40.5078554  53.9970350  84.7918606  39.9882007  52.2906780
  81.0079670  42.6484108  54.4053078  79.7870445  42.3322153  54.4174814
  81.5385818  43.8563776  54.3266201  82.5327396  43.9987421  54.2194891
  80.9098339  45.1472807  54.1499424  79.9879742  45.0055981  53.5858393
  80.5115891  45.7538795  55.5465364  79.7457504  46.5233517  55.4490519
  80.1890469  45.0252056  56.2902451  81.7997551  46.3613415  56.1080122
  82.5592327  45.6082964  56.7706966  82.1201897  47.5186825  55.8259153
  81.6834259  46.0540009  53.2465696  82.8571987  45.7952118  52.9520321
  81.0837269  47.1023893  52.7601624  80.1157093  47.2477865  53.0089903
  81.6522980  48.0387831  51.7920446  81.9813824  47.5125837  50.8959866
  80.6512737  49.0092134  51.2381744  80.2222633  49.6255732  52.0282078
  81.3055229  49.5576239  50.5604553  79.5061636  48.3785439  50.4522133
  79.9113798  48.0266619  49.5034838  79.1042614  47.5513506  51.0373020
  78.1229496  49.5533276  50.0433922  78.9431906  50.8929443  49.1796684
  78.2409620  51.6776371  48.8981819  79.7727489  51.3068485  49.7529268
  79.4396496  50.5456495  48.2735682  82.9481792  48.7181234  52.1797276
  83.8249588  48.8430357  51.3662863  83.1150341  49.0635490  53.4690285
  82.3359776  48.8511896  54.0757227  84.3365479  49.7324038  54.0015841
  84.6017933  50.5164909  53.2923937  84.1273308  50.4995823  55.3235960
  84.9837494  51.1224174  55.5818987  83.2419300  51.1331034  55.2704096
  83.8596344  49.5442867  56.3053656  83.1820965  48.9470148  55.9800863
  85.5017853  48.7189245  54.2001486  86.6790867  49.0964460  54.0982342
  85.1874542  47.4111605  54.2996740  84.2266178  47.1430063  54.1415644
  86.1718273  46.3148212  54.3876600  87.0677185  46.5361977  54.9677134
  85.6529045  45.0494385  55.0936174  84.7678566  44.6607304  54.5899296
  86.6167259  43.9437771  55.2097845  87.2569561  43.8744450  54.3303394
  87.1585560  43.9602661  56.1554289  85.9963608  43.0478811  55.1850319
  85.2103043  45.4133892  56.4175653  84.2626095  45.5666113  56.4165545
  86.6093349  45.9675550  52.9417992  87.8325176  45.8792877  52.6778698
  85.7253170  45.9568024  51.9515753  84.7517490  45.8683920  52.2054529
  86.0185814  45.9132767  50.4912567  86.5745354  44.9967146  50.2939606
  84.7336197  45.9097481  49.5685244  84.1212559  46.7204571  49.9633074
  85.0854397  46.0937881  48.0159855  84.1505241  46.3837576  47.5364590
  85.6744862  47.0028114  47.8942633  85.3797722  45.1059866  47.6614285
  83.9719391  44.5687914  49.7309065  84.6685505  43.7656260  49.4905615
  83.6520576  44.3562269  50.7509995  82.6673031  44.5998859  48.8255835
  82.8970337  44.5054913  47.7642584  82.1652985  43.6658859  49.0780544
  82.1174335  45.5208397  49.0194607  86.9041824  47.1226120  50.1725340
  87.7811623  47.0023870  49.3279791  86.6021633  48.3586502  50.7009935
  85.6954575  48.4505892  51.1363411  87.4264622  49.5069456  50.4239655
  87.6528645  49.6252918  49.3643236  86.6800785  50.7493210  50.8754873
  85.7003593  50.8672571  50.4125023  86.5173912  50.7363129  51.9531965
  87.5276184  52.0189762  50.5895138  87.0241070  52.8107071  51.1442518
  88.5632133  51.9153881  50.9134150  87.5212955  52.4716234  49.1054153
  88.5509968  52.2521162  48.8232279  86.7875099  51.9369364  48.5022831
  87.4005985  54.0152693  48.6978722  87.4705601  53.9797831  47.6107025
  86.4486217  54.4223452  49.0386581  88.3278751  54.9452209  49.3504143
  89.3054581  54.7027111  49.2754889  88.2440567  55.8650875  48.9418554
  88.1578255  54.7938156  50.3344154  88.8528633  49.4253588  51.0361719
  89.8188496  49.7817135  50.3844070  88.9482498  48.7445593  52.1843529
  88.1643772  48.4085751  52.7254295  90.1850414  48.4045506  52.7798700
  90.7556057  49.3075991  52.9968023  89.9211025  47.8530359  54.1400194
  89.3314362  46.9366932  54.1133213  90.8646011  47.6118183  54.6296406
  89.2553043  48.7684393  54.9423647  88.3363819  48.8314533  54.6718073
  90.9807968  47.4605513  51.9247627  92.2006989  47.5716782  51.7814636
  90.2646732  46.4559841  51.3927841  89.2654419  46.4652777  51.5395832
  90.8090401  45.4393959  50.4544973  91.7640305  45.1742220  50.9081459
  89.8707867  44.2376804  50.2949476  88.8701153  44.6244526  50.1022005
  90.2378559  43.6863756  49.4292498  89.8254395  43.3437920  51.5700531
  90.8327579  43.0552769  51.8703318  89.4119740  43.9657259  52.3639965
  88.9081097  42.1136427  51.4452076  88.8334656  41.6428947  52.4254751
  87.8870583  42.3855877  51.1776400  89.5468140  41.1171389  50.4170084
  89.6377563  41.5961504  49.4421339  90.5618382  40.8073664  50.6657171
  88.8665009  39.8094583  50.4620743  88.8836670  39.3596458  51.3662148
  87.9093647  39.8528743  50.1425409  89.3152905  39.1173792  49.8792219
  91.2877750  46.0859013  49.1288662  92.3825645  45.7067204  48.7143850
  90.4591751  46.9407845  48.4577274  89.5485401  47.1558332  48.8380003
  90.9097290  47.5745630  47.1901846  91.3065147  46.7836905  46.5536499
  89.7837639  48.3255053  46.5518236  89.1013241  48.7678194  47.2775936
  90.2411938  49.1295815  45.9753561  89.0339375  47.4914217  45.4573154
  88.8840389  46.4908791  45.8629513  87.5694561  47.9564619  45.2153969
  87.5436497  48.9816284  44.8459768  87.1438503  47.2868967  44.4679689
  87.0060921  47.8271341  46.1395121  89.7383785  47.4160147  44.0868187
  90.7555199  47.0475864  44.2202139  89.2619896  46.7730188  43.3467388
  89.7163677  48.4154940  43.6524725  92.0986748  48.5503817  47.4125433
  93.1319618  48.4814215  46.7093325  92.0651627  49.4292212  48.4139490
  91.1866665  49.5330667  48.9013529  93.1481647  50.3026390  48.6842537
  93.3116817  51.0381794  47.8966284  92.8061962  51.2120771  49.8857260
  92.6380825  50.5897474  50.7646704  93.6421108  51.8638420  50.1398182
  91.6598606  52.1991682  49.6111584  90.9464359  51.6838169  48.9680862
  91.1928749  52.4235106  50.5701637  91.9519806  53.5032892  48.8707733
  91.0001945  54.2501354  48.5517645  93.1320667  53.7018442  48.4560871
  94.4798088  49.5692253  48.9345551  95.4801083  50.0250864  48.4955406
  94.3498802  48.3973598  49.5961618  93.4443855  48.1081676  49.9375725
  95.5702972  47.7007914  49.9185514  96.4376640  48.3599854  49.9538708
  95.5888748  46.9727850  51.2573385  95.3156948  47.7332687  51.9888687
  94.8766232  46.1576843  51.3854647  96.5765762  46.5937710  51.5198088
  95.8976173  46.6285944  48.7725163  96.6957092  45.6745195  48.9748001
  95.3181934  46.7424345  47.5853491  94.6036243  47.4560404  47.6017237
  95.5048847  46.0140562  46.3678885  94.7773838  46.4009809  45.6543589
  96.8383694  46.4810610  45.6836987  97.6045418  45.8283329  46.1020517
  96.7276573  46.2956524  44.6153021  97.2134781  48.0066156  45.8414078
  97.3306179  48.2853270  46.8886423  98.1505489  48.1963539  45.3179455
  96.1252499  48.8871193  45.2227259  96.0060787  48.7119532  44.1535139
  95.2246475  48.6461639  45.7874823  96.3953018  50.3673697  45.4008102
  96.1600685  50.6814575  46.3314581  96.7144299  51.2850046  44.5042276
  97.0021057  50.9692383  43.3256674  97.3037052  50.0353909  43.0867815
  97.1031094  51.6581345  42.5940084  96.7252827  52.5794506  44.8767567
  96.5392399  52.9370594  45.8028269  97.0233822  53.3135223  44.2503548
  95.1957226  44.5132923  46.5125227  95.7929993  43.7987471  45.7342625
  94.2778492  44.0181589  47.3256826  93.6878967  44.6620893  47.8330326
  94.1306305  42.5817442  47.6764822  95.1670361  42.2868776  47.8408098
  93.3628082  42.3099613  49.0153885  93.7153339  43.0477476  49.7361565
  92.3241711  42.5318050  48.7701893  93.4964657  40.9060431  49.6443224
  92.8903008  40.9338713  50.5498028  93.1022358  40.1381350  48.9787388
  94.9597263  40.5458021  50.0108671  95.1830387  39.4288850  50.4616833
  95.9156895  41.3501787  49.8004055  93.7143612  41.6878891  46.4770079
  94.0333652  40.5001783  46.3121128  92.8752995  42.2695303  45.6754160
  92.5570011  43.2215595  45.7869101  92.1531200  41.5459156  44.6221113
  91.7216778  40.6950426  45.1493406  91.0141087  42.3815536  44.0839720
  91.4245796  43.3406496  43.7681580  90.5632210  41.8479013  43.2472992
  89.9341488  42.6249695  45.1279545  89.1015434  41.5646839  45.3911161
  89.2015743  40.7003832  44.7512913  88.1185055  41.6083384  46.4255524
  87.5172043  40.7181263  46.5367365  88.0471230  42.7199507  47.2828007
  87.2570324  42.7116346  48.3859062  86.9406414  41.8441105  48.6483955
  89.0304184  43.7805557  47.0228767  88.8560677  44.6909094  47.5771904
  89.9034882  43.7405825  45.9692574  90.5547523  44.5620918  45.7096577
  93.0809021  41.0757542  43.4443140  93.7810516  41.8959284  42.8466940
  92.9412937  39.7916389  42.9982805  92.2244835  39.2129207  43.4122515
  93.6767864  39.2649388  41.8526077  94.6317196  39.7903872  41.8628788
  93.8941288  37.7249146  41.8177414  94.3566227  37.5661564  42.7919054
  92.9590321  37.1656084  41.8472338  94.7305965  37.2014236  40.6922579
  94.0449142  37.1159172  39.8492765  95.5169106  37.8945327  40.3932333
  95.2543068  35.7928944  41.0191727  95.8410454  35.7415175  41.9363403
  94.3599415  35.1782036  41.1209488  96.2075996  35.3000760  39.9886489
  96.0145950  34.4277811  39.5175314  97.4575806  35.6967950  39.6502185
  98.0719566  36.6968036  40.2113628  97.5602436  37.3047090  40.8348227
  99.0212345  36.8950891  39.9291348  98.1166267  35.0613475  38.7559080
  97.7145863  34.2054892  38.4009814  99.0697861  35.2994776  38.5216379
  92.8649330  39.7332430  40.5959272  93.3918953  40.2082491  39.6575737
  91.5555763  39.6164989  40.6771088  91.2160015  39.3252683  41.5826368
  90.6493473  39.7757173  39.5560217  90.9822655  40.5249882  38.8377810
  90.5969143  38.4215975  38.7975359  91.5532684  38.1666946  38.3409190
  90.3563499  37.6457524  39.5243788  89.6605682  38.2388949  37.5824213
  89.2965984  37.1139669  37.2903562  89.4321251  39.2317581  36.8760610
  89.3011856  40.2355051  39.9913383  88.8053799  40.1652527  41.1192703
  88.6288166  40.8278513  39.0020537  88.9007282  40.8756781  38.0305147
  87.2343063  41.3093185  39.2800283  87.2442341  41.8719769  40.2135277
  86.8264294  42.2603369  38.2124162  87.4394417  43.1597185  38.2710266
  86.8637657  41.7526722  37.2485805  85.8047390  42.5408125  38.4684920
  86.2702751  40.1052618  39.5772767  85.3359222  40.3221226  40.3744936
  86.4400768  38.9137053  39.0091848  87.0652771  38.9393091  38.2163620
  85.7768631  37.6915526  39.4774365  84.7285843  37.7980971  39.1983819
  86.2458229  36.3855052  38.8058305  87.3243618  36.2402034  38.7446427
  85.7466793  35.5968118  39.3687844  85.7559967  36.2642121  37.3068452
  86.2399673  37.0619035  36.7433143  86.2038898  35.3491426  36.9193673
  84.2422867  36.2355876  37.1805549  83.5238838  36.1254263  38.1357002
  83.6535835  36.1863446  35.9845996  82.7129936  35.8222628  35.9313941
  84.2733288  36.2123036  35.1875162  85.6992722  37.5341916  41.0113430
  84.6565628  37.2075510  41.6570902  86.7551994  37.8303170  41.6756725
  87.4793053  38.3331966  41.1828375  86.8763161  37.7565002  43.0995083
  86.3209343  36.8927169  43.4649181  88.3131504  37.5032425  43.3847713
  88.9218521  38.3530378  43.0758524  88.3850288  37.4097562  44.4683743
  88.8461781  36.1879086  42.7558517  88.6765957  36.1818147  41.6791391
  89.9037457  35.9784412  42.9164124  88.1622124  34.9736333  43.3717155
  88.2785606  34.6902537  44.5923090  87.5596523  34.1713262  42.6112032
  86.3867474  39.0332007  43.8186646  86.0040092  38.9418364  44.9962187
  86.3552761  40.2140903  43.1834841  86.8615055  40.2288055  42.3096371
  85.5917549  41.3605976  43.6001110  85.8878517  41.5364647  44.6342754
  85.7874393  42.6364517  42.7075243  86.8110466  42.9505301  42.9117012
  85.6733322  42.3863411  41.6527605  84.7976398  43.7631655  43.0585861
  83.5692215  43.9204311  42.3415661  83.1997490  43.1193542  41.7185354
  82.7837563  45.0712538  42.5632381  81.8975925  45.3629541  42.0191479
  83.1627178  46.0092783  43.5478973  82.6676941  46.9609547  43.6730671
  84.3358707  45.8499193  44.2936182  84.8988342  46.5516424  44.8911619
  85.1922226  44.7631693  44.0092802  86.1013508  44.7195244  44.5906401
  84.1192818  41.0736322  43.6305046  83.5433388  41.0236168  44.7184181
  83.5505486  40.5504465  42.4812746  84.0692806  40.4032993  41.6272449
  82.1689796  40.1166010  42.3139238  81.5382767  41.0029030  42.3830748
  81.9222927  39.7044754  41.3354540  81.8289375  39.0394354  43.3178663
  80.7237625  39.1739583  43.8567591  82.7550125  38.1114149  43.6268616
  83.6666965  38.1162310  43.1922293  82.5057507  37.1979952  44.7551632
  81.5759563  36.6515636  44.5970917  83.6729527  36.1647844  44.8206949
  84.6217442  36.6583872  45.0310469  83.5440350  35.3866029  45.5729675
  83.7789917  35.6741834  43.8531351  82.3364067  37.9571414  46.1268473
  81.3377380  37.8182864  46.6910934  83.2729912  38.8167834  46.6784143
  84.1570759  38.9450598  46.2072039  83.0592251  39.5085382  47.9938030
  83.0049419  38.6987805  48.7214327  84.2969036  40.3013706  48.3694792
  84.6118832  40.9553003  47.5562954  84.1192245  40.9776735  49.2056274
  85.4848957  39.4783759  48.7162828  85.3664970  38.2932973  48.9680576
  86.5927792  40.0203848  48.8472843  81.8490601  40.4330397  48.0401945
  81.1881638  40.4599524  49.0743446  81.4703846  40.9935951  46.8885231
  82.0198154  40.9685135  46.0414124  80.2631283  41.8653965  46.8631029
  80.2688599  42.6598644  47.6093531  80.2065182  42.7127218  45.5081177
  80.3341103  42.0644808  44.6411657  78.9142561  43.4727573  45.3760624
  79.1597652  44.4252920  44.9064827  78.2447958  42.9172277  44.7193146
  78.5683823  43.7628317  46.3681984  81.2770653  43.7981367  45.5237389
  82.3065948  43.4407711  45.5449581  81.2337685  44.4800234  44.6744680
  80.9992313  44.4486284  46.3530588  78.9976311  41.0032797  46.9299412
  78.0747128  41.2505198  47.7734566  78.8949251  39.9056482  46.1415100
  79.5448875  39.7802019  45.3786802  77.7420950  38.9508986  46.2748528
  76.8093204  39.5084381  46.1901283  77.8856754  37.9295182  45.1371622
  78.8850546  37.5313282  44.9616957  77.2834969  37.0556188  45.3857136
  77.3139334  38.6054683  43.9276934  76.2734747  38.8673663  44.1199398
  77.9443216  39.4676757  43.7101793  77.3661423  37.5595331  42.8136969
  78.3810806  37.1654105  42.7620459  76.6492271  36.7441368  42.9099846
  77.1991587  38.2570386  41.5827274  76.3951302  38.8679171  41.5610790
  77.8904104  38.2852554  40.4946566  79.0888023  37.8353858  40.4219103
  79.5081139  37.3834038  41.2219048  79.5165968  37.6462054  39.5267534
  77.4587631  38.9509201  39.4248176  76.5626049  39.4160843  39.4497919
  78.0060291  39.0150023  38.5783577  77.8148508  38.1816125  47.5899029
  76.7242289  37.9330158  48.1052065  78.9787436  37.8977251  48.1637192
  79.7789049  38.1494141  47.6011419  79.1378403  37.4594212  49.5531225
  78.6269617  36.4980936  49.6074963  80.5955791  37.2593117  49.8771143
  81.1305141  36.6285324  49.1671419  81.0025120  38.2703090  49.8574400
  80.9652424  36.7863011  51.2828493  80.5840206  37.5196314  51.9934845
  80.5230427  35.3503919  51.6609001  80.6339169  34.7635531  50.7490730
  81.2068939  34.8590398  52.3530197  79.4848490  35.4895496  51.9623756
  82.4649906  36.8297553  51.4659929  82.8812695  37.8254104  51.3127422
  82.7160263  36.4921331  52.4715233  82.9120636  36.1024547  50.7883120
  78.5657835  38.4448647  50.6011677  77.8673315  38.0069613  51.5384293
  78.8910961  39.7389150  50.5316973  79.4967031  40.0856543  49.8015499
  78.2907486  40.8191586  51.3366938  78.5428810  40.6709862  52.3867321
  78.8102770  42.1965218  50.8650637  79.8990107  42.1968222  50.8125257
  78.4845495  42.4920940  49.8677444  78.2521963  43.3361292  51.6144180
  77.1747589  43.4572363  51.5022945  78.4522057  43.2450104  52.6820278
  79.0257263  44.8713875  50.9608841  78.1978083  45.0382137  49.2484188
  78.1138420  44.0617371  48.7714005  77.2518206  45.5718660  49.3401527
  78.8100719  45.5244493  48.4889364  76.8204641  40.6860018  51.3445902
  76.2375593  40.7413530  52.3996449  76.2185478  40.5726767  50.1883173
  76.8166113  40.5932522  49.3746901  74.7495842  40.3381491  50.0888252
  74.3692160  41.0793400  50.7917261  74.2505264  40.6576157  48.6722517
  74.6112919  39.8539019  48.0303812  73.1810093  40.4664803  48.7599707
  74.6150303  42.0289326  48.1266451  74.5913029  43.2194090  48.9062929
  74.3418026  43.1907034  49.9566889  75.0345039  44.4383955  48.3342552
  75.0879002  45.3329325  48.9370489  75.4719210  44.4860315  47.0118093
  75.7547951  45.4076719  46.5250254  75.4023457  43.3292341  46.2477779
  75.5870581  43.4049177  45.1863861  74.9660158  42.1249199  46.7736053
  74.8402739  41.2311029  46.1805820  74.2365122  38.9991021  50.5775118
  73.2707739  38.9287424  51.4108562  74.9316454  37.9462337  50.1584768
  75.6178999  38.1499410  49.4459724  74.6798754  36.5504479  50.5624104
  73.7758732  36.1552405  50.0990629  75.6935263  35.5699825  49.8925400
  75.7918882  35.8779597  48.8515902  76.6315985  35.5467510  50.4471397
  75.1830149  34.2514396  49.8392057  74.5023012  34.1359425  49.1722059
  74.6374941  36.2931848  52.0696592  73.7016439  35.6595898  52.6548338
  75.5440140  36.8765211  52.7972364  76.3284540  37.3465157  52.3684502
  75.5501842  36.8869877  54.2618561  75.6327534  35.8465838  54.5762444
  76.7493010  37.7796292  54.6982813  76.7290115  38.6927080  54.1033173
  76.7152166  38.1138134  55.7352257  78.2085228  37.2630715  54.5843744
  78.4741545  36.1494493  54.0835619  79.1787100  38.0231237  55.0353384
  80.0887871  37.5883555  54.9819899  78.9759207  38.8704967  55.5461502
  74.2239189  37.4780154  54.8100996  73.5009766  36.8049192  55.6039619
  73.9298201  38.7397981  54.4637871  74.6107006  39.1067266  53.8142776
  72.7500391  39.4566298  54.8563814  72.8223276  39.7164083  55.9125042
  72.7686596  40.7812834  54.1093111  73.6749172  41.3370180  54.3500519
  72.7399921  40.5791330  53.0386019  71.3637829  41.8141127  54.7741508
  70.3762770  40.9646797  54.4771767  71.4704275  38.6123133  54.5463991
  70.5580378  38.4873128  55.3620148  71.4136028  37.9122972  53.4155703
  72.1923113  37.9494667  52.7734375  70.3066683  36.9922352  53.0559921
  69.3950510  37.5493979  53.2719088  70.3973961  36.5145302  51.5932465
  71.2862539  35.9031916  51.4373779  69.5790195  35.8223510  51.3951254
  70.4003382  37.5836849  50.6156540  69.5694208  38.7072158  50.7737350
  68.9874935  38.8687253  51.6690969  69.4215870  39.7455692  49.7630596
  68.7749767  40.5953550  49.9248028  70.2944517  39.7719884  48.6856222
  70.3158998  40.8028221  47.7624893  70.9837961  40.7026768  47.0802259
  71.1151838  38.6358047  48.4893084  71.7554474  38.6235309  47.6196432
  71.1507702  37.5238776  49.4021559  71.7682552  36.6728735  49.1553593
  70.2649641  35.7192278  53.8723803  69.2403603  35.0591969  53.9642954
  71.4576864  35.2598000  54.3744898  72.3016024  35.8028674  54.2605305
  71.6536665  33.9568806  55.0756121  70.9243536  33.2898021  54.6160316
  73.1280708  33.4759760  55.0503540  73.4815502  33.4111285  54.0213013
  73.6477709  34.1909981  55.6881285  73.3081293  32.0821643  55.7484913
  73.0302811  32.1268702  56.8015385  72.6378059  31.4289165  55.1898909
  74.7469234  31.5717530  55.5429554  74.9545193  31.4383149  54.4812584
  75.4961538  32.2476077  55.9552336  75.0775862  30.2333212  56.1691713
  75.1038408  30.5494976  57.2119761  74.2896128  29.5004511  55.9957075
  76.4426231  29.6931195  55.8320332  76.6686058  28.8349223  56.3142538
  76.5024471  29.3550324  54.8821783  77.2146988  30.3148985  56.0254049
  71.1242580  34.2096758  56.5249348  70.3088284  33.4332442  57.0238495
  71.5811586  35.2568173  57.2141457  72.2947550  35.8655667  56.8395710
  71.2488222  35.4107523  58.6295891  71.3870192  34.4500232  59.1255760
  72.1349335  36.5277362  59.1897917  73.1360483  36.5077162  58.7591267
  71.8281317  37.5516176  58.9761543  72.2713518  36.2567377  60.7320738
  73.1765318  35.2251530  61.0940695  73.5202312  34.5912671  60.2900410
  73.3162546  34.9301457  62.4845266  73.9565277  34.1193867  62.7993727
  72.5447369  35.6128168  63.4336281  72.7752829  35.2804613  64.7262383
  73.4743595  34.6433783  64.8906088  71.7231512  36.6736555  63.0083179
  71.1708450  37.2807050  63.7103462  71.6040564  37.0136571  61.7167759
  71.1365509  37.9446244  61.4319277  69.7919655  35.8547211  58.8690996
  69.1632557  35.4875851  59.8591471  69.2283630  36.5668201  57.9177284
  69.8555851  36.8709493  57.1868372  67.9151392  37.2084856  58.1184196
  67.6398468  37.1409249  59.1709137  68.1358957  38.6913323  57.7103043
  68.4762096  38.6507773  56.6755867  67.2225285  39.2749190  57.8255892
  69.2530441  39.4010162  58.5503244  69.0611506  39.5586038  59.7675514
  70.3944206  39.7967005  57.9767227  71.0415554  40.4120541  58.4485865
  70.6042433  39.5427132  57.0219660  66.8572187  36.4636064  57.2938776
  67.1128130  36.3800502  56.0706711  65.6828880  36.0863805  57.8231049
  65.3650475  35.9379005  59.1968250  64.9876595  36.8656111  59.6269798
  66.2596607  35.6465960  59.7472000  64.2689562  34.8782969  59.2494297
  63.6575794  34.9835753  60.1456642  64.6515512  33.8662171  59.1174507
  63.4834909  35.2144003  57.9839325  62.9505444  36.1592913  58.0899715
  62.8130150  34.4262648  57.6412916  64.6298409  35.5342650  57.0093632
  64.9447536  34.6471620  56.4598322  64.1146278  36.6174650  55.9972906
  64.2817020  37.7999377  56.2883902  63.4375238  36.3010859  54.8979425
  63.1305504  34.9319839  54.5737314  62.4306202  34.5765734  55.3299570
  64.0936852  34.4224811  54.6033812  62.5251150  34.9606562  53.2280588
  61.4646101  34.7298932  53.3289337  63.0018902  34.2992592  52.5046349
  62.6257086  36.3890481  52.7265882  61.6749239  36.5820026  52.2297192
  63.4695530  36.5047550  52.0464134  62.8455734  37.2594142  53.9662123
  63.6271477  37.9899740  53.7575817  61.5617085  37.9379320  54.4580221
  60.7723045  38.5837007  53.7770700  61.2920475  37.6700735  55.7513046
  62.0747185  37.2717810  56.2501955  60.3949738  38.3240485  56.6931152
  59.5662975  38.6610985  56.0703897  59.9595261  37.3006582  57.8096342
  60.8590317  37.0354629  58.3652067  59.2221689  37.8116465  58.4287500
  59.2537594  36.0989594  57.2369242  59.6967268  34.9852586  57.6396227
  58.2109928  36.2502384  56.5114069  61.0192299  39.5887637  57.3550987
  60.3071213  40.3936863  57.9909420  62.3547506  39.7982073  57.2569752
  62.9636335  39.0978003  56.8584871  63.1274939  40.9802675  57.6180744
  62.5494671  41.4286232  58.4261322  64.4602489  40.5233812  58.2232428
  64.3503189  39.6331763  58.8425589  65.1399422  40.1186514  57.4733639
  65.1139021  41.5643358  59.1084480  64.9671125  42.9180717  58.9286566
  65.8431721  43.5121775  59.6770287  65.9425163  44.5875025  59.6914387
  66.5632296  42.5861645  60.3503084  67.1681404  42.8225756  61.1238050
  66.0630512  41.3156843  60.0175714  66.4173555  40.3403664  60.3169441
  63.3112860  42.0190573  56.4958811  63.5811043  41.6099024  55.3980398
  62.9877806  43.3053255  56.7896652  62.7167940  43.4565449  57.7508068
  63.2817221  44.4328785  55.9553576  62.6804876  44.3714666  55.0482512
  62.8942966  45.7788038  56.5827131  63.4408808  45.8773041  57.5206089
  63.3228540  46.5784264  55.9785223  61.3862181  45.9125996  56.6374636
  61.1247158  46.7242575  55.9585428  60.9480143  45.0158882  56.1993074
  60.7668924  46.1446190  58.0401134  59.9181652  47.0225430  58.2242775
  61.0584211  45.5585432  59.0545034  64.7227859  44.4710970  55.3769541
  64.8464155  44.8397017  54.2084265  65.8177137  44.0453720  56.1175919
  65.6647539  43.5367537  56.9766665  67.1169710  44.3933630  55.5648041
  67.0027065  45.4117250  55.1933432  68.1422806  44.3074894  56.7270422
  67.6600504  44.6854782  57.6285267  68.4403038  42.8522396  57.1339464
  69.1682720  42.8451204  57.9451895  67.5524282  42.3008204  57.4433279
  68.9819431  42.3524523  56.3308668  69.5099258  44.9855757  56.3402081
  70.1820946  44.9620962  57.1979666  70.0589514  44.5104551  55.5272293
  69.2934036  46.0316181  56.1233997  67.4636841  43.5199070  54.2831278
  68.2530117  44.0017605  53.4677744  66.8236923  42.4098110  54.1109419
  66.1751270  42.1348286  54.8347139  66.8571377  41.6149569  52.8395224
  67.8305912  41.2960052  52.4670219  66.0540390  40.3214836  53.0518723
  65.0847292  40.5839968  53.4756947  65.6618929  39.5701766  51.7989111
  65.2782774  40.2588463  51.0461330  66.4819813  38.9699841  51.4047956
  64.8292589  38.9044404  52.0261002  66.5464735  39.3081212  54.0041685
  67.5826883  38.9979529  53.8694239  66.5320396  39.7980213  54.9777651
  65.9007168  38.4312129  54.0504074  66.3619232  42.4292612  51.6523647
  67.0580530  42.5590181  50.6125593  65.2093697  43.0285311  51.7481184
  64.6300316  42.8909206  52.5639153  64.6867561  43.9875746  50.7215691
  64.5644760  43.5300589  49.7398186  63.2497358  44.2878008  51.1103106
  63.2148218  44.8066044  52.0682859  62.6840782  44.8632050  50.3774738
  62.7687931  43.3114433  51.1696482  65.5476141  45.2046537  50.5333567
  65.6872129  45.6532478  49.3999577  66.2253141  45.6504631  51.5859175
  65.9988451  45.3048944  52.5075436  67.3196554  46.6418743  51.4116716
  66.8994093  47.4238014  50.7791471  67.7618456  47.2258472  52.7388859
  68.2554483  46.4532137  53.3283710  68.5128355  47.9934168  52.5519228
  66.5001917  47.7540684  53.5523844  66.0076952  48.5657072  53.0168533
  65.8051968  46.9183969  53.6344051  66.8376064  48.3786440  55.1684856
  66.6878319  50.1119757  54.8121405  65.7083941  50.3096247  54.3765545
  66.7162991  50.5894327  55.7915926  67.4913168  50.4488945  54.1571569
  68.4765434  46.1199284  50.5841970  68.8762140  46.7811012  49.6592903
  69.0656424  44.9291325  50.8406115  68.7168550  44.3688154  51.6051388
  70.1645899  44.3100548  50.1760292  71.0784960  44.9039316  50.1897287
  70.4487705  42.9699516  50.8401680  71.2823153  42.4832201  50.3338146
  70.7159424  43.1865978  51.8744755  69.5453596  42.3785400  50.9890890
  69.8277950  44.0552187  48.6488056  70.6271362  44.4856024  47.8052902
  68.5832405  43.5603237  48.3551502  68.0608940  43.1135702  49.0951967
  67.9952765  43.5398388  47.0211697  68.6543894  42.9561281  46.3785505
  66.5968227  42.8286171  47.0614243  65.8980370  43.3340693  47.7279949
  66.1314964  42.9713011  46.0861206  66.6150713  41.3250971  47.2649431
  66.9962311  40.9192801  48.2020283  65.5547428  41.0729599  47.2799253
  67.4307203  40.5870819  46.1556530  66.9706964  40.8389282  45.2001143
  68.4974718  40.7854986  46.0518789  67.3450279  39.0947104  46.2506580
  66.7834854  38.5887814  46.9205904  67.8778315  38.2727194  45.3926420
  68.5843706  38.6214685  44.3695259  68.5933304  39.5995259  44.1176796
  68.8120508  37.9201150  43.6793375  67.7099657  36.9826651  45.5871677
  67.1749258  36.6791701  46.3882494  67.9352474  36.3800693  44.8085594
  67.8260994  44.8815060  46.3042164  67.9039240  44.9047995  45.0857449
  67.5935459  45.9769201  47.0152760  67.2283840  45.8446407  47.9476166
  67.6255417  47.2830200  46.4160299  66.9610929  47.2978783  45.5520916
  67.0473909  48.2697630  47.5216627  66.2088156  47.7663422  48.0027723
  67.7705956  48.4639120  48.3137369  66.4919186  49.5610380  46.7819691
  67.3025513  50.2322769  46.4983940  65.9027719  49.2988253  45.9031916
  65.5592489  50.3226614  47.7956676  65.1541281  49.5594025  48.4600544
  66.1793995  50.9872532  48.3971977  64.3807125  51.0118532  47.1504736
  63.8246012  50.2451515  46.6110325  63.6920309  51.3167953  47.9384089
  64.7833633  52.1056843  46.2385607  65.6050539  51.8606472  45.7048082
  64.0983677  52.0471096  45.4986620  64.8023748  53.0107164  46.6865015
  69.0475416  47.8347635  45.9302759  69.1368294  48.3582592  44.8172474
  70.0901699  47.5959206  46.7501926  69.7925377  47.0856428  47.5694180
  71.4809418  47.9163122  46.4522314  71.3829088  48.8832712  45.9587860
  72.4127817  48.1577444  47.6823950  71.8786955  48.8258219  48.3580637
  72.5530148  47.2726536  48.3029270  73.7837648  48.8557196  47.3250628
  74.2643166  48.1749105  46.6224480  73.5741806  50.2677107  46.7912579
  73.2571125  50.9166336  47.6076317  74.5480490  50.6640387  46.5038490
  73.0250692  50.2811575  45.8497763  74.6167707  48.8106489  48.5472870
  74.0394783  49.2858410  49.3404055  74.8246574  47.8310823  48.9777899
  75.6400728  49.1267347  48.3447027  72.1808958  46.9395590  45.5007648
  72.8736067  47.4525738  44.5664835  72.0164490  45.5766678  45.6109619
  71.3739204  45.2308035  46.3092709  72.4456501  44.6400642  44.5803785
  73.5280991  44.6072912  44.7042561  71.9694948  43.1862736  44.9859524
  72.4492884  43.0399799  45.9536791  70.8805418  43.1880808  45.0337267
  72.4607611  42.0846272  44.1525936  71.9442892  41.9145298  43.2079124
  73.4531641  42.3850060  43.8164091  72.6645994  40.6828451  44.7383785
  72.0347118  40.3556633  45.7074261  73.6726236  40.0227928  44.1962957
  73.8871908  39.0554905  44.3922377  74.1511154  40.4679203  43.4262323
  72.1218348  44.9787951  43.1256342  72.8820896  44.6524000  42.1908665
  70.9511566  45.5923271  42.9924965  70.4940176  45.8809662  43.8456202
  70.5575705  46.1397552  41.6320944  70.3231859  45.2317476  41.0764980
  69.3416977  47.0379257  41.8006659  68.5600185  46.4769506  42.3129034
  69.6351957  47.9116964  42.3824596  68.7950706  47.4497271  40.4406023
  68.8312435  46.6349316  39.4989371  68.1904697  48.5174561  40.3562546
  71.6991186  46.9829798  40.9984875  72.2816515  46.5599966  40.0014591
  72.1635151  48.0546856  41.6141415  71.9637108  48.0949593  42.6033640
  73.3029985  48.9005995  41.1249733  72.9819202  49.5361376  40.2996826
  73.8007259  49.9324274  42.1381092  74.1815519  49.3971300  43.0078983
  74.8000526  50.9424686  41.6657209  75.0075006  51.6000175  42.5099325
  75.6983757  50.4278135  41.3247585  74.4983196  51.6189957  40.8661127
  72.5643539  50.6574106  42.7493668  72.0902586  51.2523365  41.9687271
  71.8265486  50.0338936  43.2543135  72.9007435  51.4155912  43.4565449
  74.5230198  48.0410671  40.6689739  74.9559259  48.0987740  39.5651531
  74.9856853  47.1657705  41.6194296  74.4577837  47.0530701  42.4730778
  76.0974026  46.2558174  41.3298941  77.0352507  46.7466545  41.0698271
  76.3821650  45.4489803  42.6272249  76.8749571  46.1490059  43.3019257
  75.4605293  45.0637102  43.0634022  77.2742987  44.1475344  42.4474001
  78.6954498  44.1849899  42.2477388  79.2141819  45.1281929  42.3354197
  79.4368410  43.0123615  42.0525980  80.5162430  43.0438757  42.0349836
  78.7235212  41.7898655  41.8268108  79.2450285  40.8680201  41.6155577
  77.3457098  41.7257309  41.9926071  76.8930674  40.7668352  41.7875957
  76.6461325  42.8768587  42.3448133  75.5845642  42.7667809  42.5102186
  75.8018827  45.3100395  40.2069426  76.6324520  45.2492380  39.3625712
  74.7575617  44.4827366  40.2297115  74.0314579  44.6425772  40.9133244
  74.5150948  43.4810114  39.1595578  75.3174639  42.7434492  39.1770220
  73.2869196  42.6560211  39.4262767  72.5070381  43.3454132  39.7497296
  72.9753685  42.1668673  38.5033631  73.4877586  41.6286421  40.6081200
  73.7684774  42.1249390  41.5370941  72.5258112  41.1305809  40.7293749
  74.4343758  40.4851627  40.3559208  74.7201586  39.7928524  41.3546562
  74.8835421  40.1522636  39.2011046  74.3777943  44.0744209  37.7420735
  75.0860357  43.6696529  36.8469977  73.6508560  45.2121592  37.6243305
  73.1081438  45.4525471  38.4415054  73.5933399  46.0099411  36.4113593
  73.2360983  45.3969336  35.5838895  72.5987434  47.1744442  36.6732407
  71.6506529  46.6793346  36.8832231  72.8154373  47.8752518  37.4794745
  72.2977591  48.1204271  35.5004406  72.0357752  47.4906015  34.6502733
  71.3696384  48.6854315  35.5868244  73.5669708  49.3895054  35.0725818
  73.0457926  50.7010698  36.1454797  73.8810492  51.3106489  36.4902449
  72.4080229  51.4305925  35.6463313  72.5940084  50.3011990  37.0532775
  74.9874353  46.4575005  35.9751344  75.2909803  46.4086628  34.7474337
  75.7852840  47.0504808  36.8983817  75.5306244  47.1165895  37.8735113
  77.0736217  47.6897287  36.4876747  76.8348408  48.2802105  35.6031346
  77.4898148  48.7321663  37.5552464  77.8065300  48.2006073  38.4526038
  78.4368038  49.0355110  37.1088243  76.6409016  49.9752235  37.8792906
  75.5854988  49.7685814  38.0568647  77.0053959  50.3402376  38.8395000
  76.8340731  51.1398125  36.8675494  76.6347265  50.7105780  35.8856535
  76.0081577  51.8426609  36.9769692  78.1583309  51.8282604  36.9536924
  78.9714766  51.2670565  36.7440581  78.4487724  53.0616713  37.3248339
  77.5645638  54.0104389  37.2735548  76.5851974  53.8471794  37.0883775
  77.8055573  54.9179316  37.6456809  79.6445131  53.5082245  37.6413274
  80.4303646  52.8771782  37.7070165  79.7446632  54.5109129  37.7097607
  78.1213951  46.6017628  36.1754990  78.9790726  46.9356108  35.3645778
  78.1649160  45.4479361  36.8776274  77.4791908  45.3278494  37.6093817
  79.1496134  44.4222260  36.7074513  80.1432419  44.8597336  36.6105843
  79.0218449  43.5550308  37.9604149  78.9057589  44.1944313  38.8355088
  78.0985069  42.9825830  37.8717971  80.1547718  42.5099659  38.1134725
  80.1501274  41.3767481  37.3088050  79.4831800  41.3626289  36.4594626
  81.2769127  40.5507374  37.3940039  81.3640785  39.7383356  36.6877437
  82.2208214  40.6844330  38.3955121  82.9724026  39.9150801  38.4936523
  82.1944618  41.7917919  39.2475176  82.9227924  41.9642639  40.0261021
  81.1636257  42.7044296  39.0934324  81.2120914  43.5759020  39.7295117
  78.8971472  43.6626530  35.3882504  79.8605108  43.3762121  34.6296501
  77.6784658  43.4863138  34.8810935  76.9346046  43.9827919  35.3504348
  77.4159241  42.9984760  33.5466218  78.0024815  42.0942020  33.3842969
  75.9485102  42.5606155  33.4379506  75.2194643  43.3173180  33.7277818
  75.7936716  42.1888256  32.4250841  75.6709051  41.6979885  34.0436816
  77.8830767  44.0067005  32.4766541  78.4126329  43.6000299  31.4510465
  77.7069378  45.2904987  32.8265190  77.2867823  45.5469656  33.7084508
  78.0962896  46.4725780  32.0130205  77.8559065  46.3412571  30.9579992
  77.3520041  47.7710772  32.4726295  76.3006735  47.5634003  32.6718044
  77.8598547  48.1916523  33.3405638  77.3315334  48.8677406  31.3141084
  78.3644247  49.1671181  31.1363411  76.9342947  48.5113144  30.3637052
  76.5755749  50.1634121  31.6791463  77.0485401  50.4040956  32.6312375
  76.8639946  51.0218525  31.0725188  75.1033211  50.0405884  31.9084239
  74.6653271  49.5825529  31.0215926  75.0309086  49.3601179  32.7568460
  74.4323969  51.3370085  32.1539116  74.2305851  51.8069410  31.2829709
  73.5469913  51.2447262  32.6310277  75.0532961  51.9589663  32.6516700
  79.6297979  46.7986393  31.8709421  80.0037479  47.2999287  30.8319139
  80.4873657  46.3910580  32.8328681  80.0204182  46.0215902  33.6486816
  81.9166565  46.6309071  32.9742026  82.1078110  47.6146603  33.4029031
  82.3619175  45.6713247  34.1113138  82.0058823  46.2083101  34.9905109
  81.8417835  44.7233677  33.9736724  83.8313866  45.3458118  34.1480136
  84.0829086  44.6075201  33.3865929  84.3641472  46.2316036  33.8021183
  84.4438171  44.8503399  35.7996035  83.4354210  43.3768463  36.2330341
  82.3865604  43.6363173  36.0893178  83.7693596  42.5677729  35.5834222
  83.6177540  43.0837727  37.2669435  82.6952839  46.4121962  31.5997076
  82.3013783  45.5414295  30.8579540  83.7855148  47.1597338  31.3621664
  84.1066170  48.4548950  32.0042634  84.4554043  48.2497740  33.0163765
  83.2460690  49.1116714  32.1315408  85.1553726  49.1882372  31.1642885
  85.9892178  49.6091747  31.7260742  84.7647667  50.0536251  30.6289101
  85.6956005  48.0423164  30.3063488  86.5884972  47.6749754  30.8122110
  85.9244442  48.5807467  29.3866634  84.6016026  46.9174623  30.1838231
  83.9299774  47.0541716  29.3362784  85.2480030  45.5180025  29.9981380
  85.5929661  44.8672056  30.9639549  85.3753090  45.0270891  28.7539291
  84.8005199  45.5161619  28.0827093  86.0882282  43.7682724  28.3489418
  85.7107639  43.0011988  29.0251255  85.8251286  43.6123800  26.8096876
  84.7641087  43.7188292  26.5838528  86.3534355  44.3898249  26.2578082
  86.1471844  42.1818447  26.2879086  85.6274128  41.1371517  26.7023730
  87.0075035  42.1850729  25.3343725  87.5744152  43.6758137  28.6805916
  88.1624889  44.7977543  28.7666368  88.1796741  42.5338173  28.8200283
  59.5803213  48.1569815  52.7915621  60.6544399  50.0323009  57.2175980
  60.4665899  45.9532976  51.5640402  59.8609257  47.2780132  51.2786770
  59.2055082  47.5677919  53.9961576  69.4662762  44.3355560  60.9070969
  67.9480171  42.7196455  63.0734730  73.5585880  46.1320686  59.5193148
  59.0820122  48.3091307  55.1866055  72.0923567  41.8903303  59.8005390
  69.9082661  42.6533222  64.3523741  59.8412228  49.5833731  52.8270721
  72.8708076  42.1145535  58.6690187  61.8090630  51.9506073  56.6509628
  59.7701406  50.2567005  54.0159225  71.8266916  43.9458418  59.1315556
  60.4589701  48.1877184  50.3382635  59.3839407  49.6503735  55.2548027
  58.2562923  46.8917465  50.6726837  59.3604803  50.3874969  56.5573883
  55.4298878  46.9484091  51.3405180  61.7135143  50.8256197  57.2472763
  51.4874315  48.9257956  49.7932053  62.9725647  50.2704954  57.8764868
  62.9113531  49.1102028  58.7462997  64.0722942  48.4994364  59.1872358
  64.2693806  50.8151865  57.6692772  65.3905630  50.2207184  58.2911825
  65.3412437  49.0153408  58.9971113  66.5642929  48.3477831  59.5492887
  67.7192831  48.2428694  58.7293386  68.7746286  47.3017550  58.9812899
  68.6610699  46.4974451  60.1215172  69.6964788  45.5448675  60.4889345
  70.5527735  43.3900261  61.2217712  69.9528742  42.1925735  61.9475794
  69.3149853  42.5459146  63.2653284  67.1795654  43.3529615  64.1303062
  71.5411472  43.0246401  60.0888586  72.8250313  43.4072971  58.3793736
  73.2219791  43.8704586  57.0039749  72.0534325  45.2775431  59.6414328
  71.0248184  45.9968853  60.2326727  71.5257692  47.2014475  60.8694363
  70.7930899  48.1024981  61.7888641  72.8938866  47.3415995  60.5839682
  73.9127445  48.3113956  61.1256218  67.5397825  46.5990257  60.9575033
  66.5311861  47.5165462  60.6949377  57.3658895  47.7465773  50.0572252
  57.7505493  48.6306095  49.0452433  56.7643881  49.4472790  48.4004498
  55.3534698  49.3935537  48.7888527  54.2651606  50.1687193  47.9662514
  55.0046778  48.3855963  49.7301960  55.9760427  47.7202845  50.3788614
  54.0894651  46.9042110  51.2678623  53.7658501  47.8948116  50.3396416
  52.5283957  48.4311104  50.0786400  59.1219664  46.4882994  54.0805483
  58.9453697  47.6759672  56.0582829  60.2858400  50.0578117  51.9572353
  59.9635267  51.3165569  53.8791609  59.3395472  51.4598560  56.3276148
  58.5370922  50.1319313  57.2355556  60.7650042  49.1424656  57.6889181
  61.9926167  48.5794783  58.9779425  63.9812231  47.5519037  59.7100067
  64.4425964  51.7032337  57.0686436  66.3652754  50.6613445  58.1035995
  67.7277279  48.8639784  57.8385258  69.5592785  47.2610855  58.2315683
  71.1803579  43.8307953  62.0060205  70.7575369  41.4633036  62.0970392
  69.2806768  41.6979313  61.2368488  66.9250059  42.5969648  64.8832083
  67.7641535  44.1912842  64.5286322  66.2040424  43.6925554  63.7612247
  74.0516424  44.5808458  57.0970678  73.5674620  43.0662298  56.3440418
  72.3631525  44.3661547  56.5366840  71.2830257  49.0707493  61.9441223
  69.8158407  48.4235764  61.4099836  70.7186079  47.7199697  62.8134489
  74.3729258  47.8787231  62.0215464  74.8252487  48.4932995  60.5460501
  73.4685755  49.2230654  61.5418243  67.4724054  46.0091114  61.8668222
  65.6566334  47.4903774  61.3382626  57.9087257  46.2933683  51.4111185
  58.7965775  48.6136866  48.7538099  57.0126009  50.1255608  47.5894499
  54.7941732  50.9257698  47.3757601  53.6822701  49.4390583  47.3922396
  53.4792328  50.6072426  48.5920858  56.0298347  46.4255333  51.9616175
  53.5577011  46.3099718  51.9975567  62.5573635  76.9245768  40.0182390
  60.5354500  68.1398439  54.8116732  42.8043365  86.7489147  72.9385614
  78.1515789  75.8789253  40.5916548  25.6815052  70.4330254  82.5963020
  91.1803532  51.2606716  42.6814270  15.4791737 100.1997375  73.5371351
  70.3558493  64.4120741  41.9587660 104.5822334  71.4342976  52.9929399
 103.9793682  72.0997715  52.6613855 104.2642212  71.2410784  53.8748455
  12.1544516  11.6091728  39.0716338  12.6007450  10.7648420  39.0071440
  11.2296295  11.3841164  39.1730499 100.2035046  88.3796787  65.0935507
 101.0998821  88.7107849  65.0378370  99.9260235  88.5885429  65.9855223
 103.9099503  75.6414986  89.5292664 104.7999096  75.4998446  89.8519516
 103.8170624  76.5934849  89.4928837  11.3974905 100.9750652  68.2178450
  11.3334846 101.8643188  68.5662222  11.0633838 101.0435963  67.3234701
  12.5283170  79.2320061  60.7995510  11.9462788  79.0115595  60.0723171
  12.2296548  78.6789656  61.5214777  -0.0507752  97.8979492  14.5169294
   0.2619991  97.4704266  13.7196672  -0.0075621  97.2159290  15.1871657
  94.4640923  70.3840590  19.4350731  94.3250084  71.2909794  19.7078037
  95.1625061  70.4346228  18.7824714  99.3514538  90.3990746  36.7852759
  98.7549686  89.6990204  36.5200233 100.1983929  89.9654198  36.8895388
 112.1981812  64.8183632   3.9190373 112.5879002  65.0856972   3.0866429
 111.2569714  64.7952461   3.7463623  77.4548388  48.8306808  86.1612034
  77.8509855  49.3804359  86.8372726  76.7576838  48.3574724  86.6153908
  92.8681755  84.4597530   0.1002082  92.3513985  83.9608383   0.7328624
  93.3468628  83.7952042  -0.3952346   6.5863234  10.1582325   1.2079101
   7.5372738  10.1156664   1.3084753   6.2740821   9.3094718   1.5215065
   4.5824471  83.0137825  45.5507803   3.9079103  83.6175060  45.8618212
   4.1306168  82.1745300  45.4628277  46.4246607   9.5474130   1.7601657
  47.3697662   9.6952987   1.7939003  46.0760260  10.3247511   1.3237807
  89.5470905  79.8430967  38.7817121  90.1568317  79.3744421  38.2117939
  89.3061161  79.2036581  39.4519949  98.4256649  89.5907497  15.2949798
  98.1034565  88.9146519  14.6988976  97.9393482  90.3778648  15.0496924
 109.3718052  59.4852734  11.6900277 110.0825691  59.0680075  12.1767843
 109.7792244  60.2463913  11.2765729  87.2442818  61.6530418  24.3665528
  86.3651752  61.4393139  24.0539598  87.2284222  62.6012850  24.4962406
  28.5886931  64.0544891  24.2253923  29.1199827  63.7928104  24.9773812
  27.9348803  63.3604956  24.1409469 106.7671299  74.7919130  38.3132672
 106.7259407  74.3542719  39.1635656 107.5976181  75.2676010  38.3287072
  26.4948201  97.8227139  14.9252093  25.9574151  97.8395653  14.1332853
  25.9114933  97.4818993  15.6033015  76.4605045   8.3664101  19.0453756
  76.9355011   9.1329086  18.7243009  77.1011066   7.8924716  19.5756972
  87.3222351  50.5919075  68.2101631  87.6469612  50.4779863  67.3169613
  87.1672630  51.5330601  68.2904577  54.1412830   4.2595440  70.4392862
  54.1756725   4.9790776  71.0696173  53.2093573   4.1521919  70.2489567
 104.4129562 106.6210270  15.0121379 105.1748180 106.5277958  14.4401979
 103.6653805 106.6370201  14.4145608   3.1661505  92.9120827  17.0482576
   2.7869385  93.2407761  17.8633583   4.0891457  93.1611538  17.0959592
  14.4790196  73.8161612  45.0950623  15.0500250  73.4321404  44.4296932
  13.6260593  73.8873434  44.6665478  51.0454941  26.5034676  37.9353881
  50.2446842  27.0162988  37.8261256  51.1227942  26.0039449  37.1225333
  96.1285496 101.9665146  23.0670643  95.9736061 101.1726952  22.5551224
  96.9901943 101.8325329  23.4618521  75.6389999  97.3787785  42.7431107
  76.0398674  97.6417446  41.9146299  75.2716923  96.5125465  42.5671577
  74.7967148  74.6788454  24.7297955  74.7527647  74.5097637  23.7886739
  75.5473804  75.2636766  24.8332715   5.6837922 103.5439396  37.0617294
   4.8904017 103.0201435  37.1730852   6.1864758 103.0781555  36.3934612
  43.3810711   2.3631002  36.7498064  42.4698162   2.0759268  36.8078852
  43.6430979   2.5136551  37.6580501  83.9222336  88.5320663  61.4617252
  84.3341541  87.8820133  62.0309258  84.3857288  88.4487534  60.6283808
   2.4037910  32.9362679  19.7316051   1.5134205  33.2651901  19.8552215
   2.8084627  33.0098462  20.5959320  75.5396271  96.7800140  54.8828030
  75.4432344  95.9860325  55.4086733  76.1324596  97.3334980  55.3911686
 106.2319851  66.4475298  50.2804470 106.0305691  67.0403481  49.5564127
 105.6658363  66.7405462  50.9944916  33.6730862   1.9277039  33.7243462
  32.9629397   2.0405664  33.0925345  34.4685245   1.9209224  33.1919360
 107.8707886  82.8502369  33.0955529 108.5390282  83.3927250  33.5143495
 107.8818703  82.0313931  33.5911417  23.3431745  80.7188129  14.3606961
  24.1576743  80.8235455  14.8524797  23.1988573  79.7729015  14.3349779
 111.6839409 100.5482197  56.8003988 112.2466183 100.4317093  56.0348606
 111.0766315 101.2435818  56.5476656   2.6765323  75.6245995  12.4646020
   3.1015301  75.8126974  13.3013988   1.7842206  75.9547281  12.5696135
  75.6193495  74.0410089  11.4918947  75.0835466  74.0997696  12.2829032
  76.0693121  74.8845100  11.4441955   5.0284904  89.5860100  66.6852236
   4.6362162  88.7948227  66.3159323   5.4903924  89.9897194  65.9504509
  73.4295559   9.6939313  19.8655713  73.4502220   9.5341152  18.9220345
  73.8767433  10.5329847  19.9762297  69.4610357  39.4697022  83.3858681
  68.6598778  39.9652123  83.2160091  70.1590919  40.1237154  83.3509922
   9.9211442   2.0536140  15.7704973  10.2758360   1.1681313  15.6908369
   9.1194052   1.9453527  16.2820888 110.5931473  86.3150311  12.4080539
 109.7844505  86.4489746  12.9023278 110.3163147  85.8538914  11.6162539
  87.6966381  46.5660095  26.5201259  87.7012444  45.9034872  27.2109747
  86.8573666  46.4435482  26.0764265  33.1938767  97.4273300  24.7188663
  33.1350160  96.4737511  24.6600389  32.5588393  97.7464962  24.0777040
  94.5883560  66.9706678  10.0967741  94.6704674  67.6259470  10.7896674
  93.8471413  66.4284039  10.3665543  10.1859093  91.7158318   2.6252633
   9.6864158  91.0350895   2.1743356  10.9642696  91.8410873   2.0824027
 111.7387295 102.4594879  66.3159227 111.0127449 102.5651360  65.7010889
 112.1746922 101.6547012  66.0357475  58.0555439  21.3150573  88.3718872
  58.9883900  21.1634183  88.2201290  57.7310801  20.4839468  88.7186050
   6.5916485 103.6505318  63.2730341   6.0610473 103.8768673  64.0368843
   7.4437708 103.4093475  63.6362839 110.7472134  95.0154495   8.8620234
 110.1280975  95.3308868   8.2036746 111.2506485  94.3371391   8.4118223
  98.0430222  96.0714531  31.5693092  98.1680584  96.2193584  30.6319070
  97.7803326  95.1532745  31.6339684 112.9431152  60.9670734  49.0237570
 112.2898197  60.5166340  49.5590448 113.0028439  61.8428850  49.4053507
  92.6575947  69.9187803  13.0335140  91.7698956  69.9607515  12.6778948
  92.5404453  69.6201706  13.9353681 110.8795166  94.1298485  21.8204689
 110.3247833  94.9087620  21.7780519 111.7167091  94.4116783  21.4518237
   1.3561814  59.5771503   2.9687619   0.8957713  59.0271568   3.6026096
   2.2085854  59.1554022   2.8602773  85.1198673 104.6404457  31.8401098
  85.9107113 104.3419456  31.3909960  85.4337502 104.9776936  32.6791406
  82.4034405  97.6518536  18.6928070  81.9186592  96.9821453  19.1752040
  82.6710892  98.2821751  19.3616021 108.9977074  70.4691315  11.8139529
 109.1341496  70.1442337  10.9239793 108.5548878  69.7508717  12.2658837
 106.9899464  76.3226986   6.1378860 106.1228371  76.1384821   5.7767397
 107.0346069  77.2780085   6.1781704  38.3864522  10.4373240  54.8048496
  37.7983522  10.7630002  54.1234493  38.0353189  10.8004510  55.6179142
 106.0834885  88.5575676  21.5714693 105.4111862  87.9571152  21.2494159
 106.7968845  88.4804058  20.9379554  34.0020704  12.3977315  46.2404966
  34.7730589  12.8581309  46.5719223  33.5763907  13.0296826  45.6611300
  97.4297047  82.8696632  60.8483410  97.1071243  82.0105648  61.1205721
  97.5623989  83.3463478  61.6677332  19.4237053  97.1246433  24.2446399
  20.2544045  97.0991898  23.7697458  19.0479326  97.9770088  24.0243936
  27.9630804  27.6949811  12.1084356  28.5156178  27.0895982  11.6140223
  27.1306539  27.6998281  11.6359150  47.5254965  16.4008713  40.4423475
  47.8548098  17.2896624  40.3087950  47.6505136  16.2370622  41.3771009
   5.9922600  90.8264256  41.2613201   5.6462520  90.5863094  42.1208858
   5.3120363  91.3779449  40.8748531  20.0180244  88.3932114  20.6252694
  19.4441402  88.9781857  20.1306057  20.7363987  88.1973934  20.0237489
  51.3780308  46.0310221  15.4072821  51.0221291  45.2515697  15.8339179
  51.3136101  46.7178106  16.0709143  35.7344770   3.2555571  32.2641540
  35.3681707   4.0657753  31.9097543  36.5489364   3.5262075  32.6879859
  17.8334391   4.3145639  31.1131382  17.1466315   4.9771789  31.1870933
  17.4600208   3.6455595  30.5393577  79.7648478   5.6195635   4.1611516
  79.0020084   5.9618455   4.6271461  79.8644400   6.1995363   3.4062055
  78.2779121  64.4796181  86.5879250  78.0029774  65.3948069  86.6434097
  79.2328501  64.5125389  86.6448212  11.9142127  29.0997720   0.5232053
  11.0491657  29.4604468   0.7177298  11.9496119  28.2816863   1.0189021
  43.5206079  37.0998192  26.2528443  44.2735004  37.4807048  26.7048502
  43.0835295  37.8469110  25.8441257   4.9450412  79.5773983  30.2624607
   5.7156956  79.7084522  29.7100616   5.0787389  80.1676559  31.0040498
   0.4170633  84.5306683   4.1186452   0.8067629  83.7547874   3.7156898
  -0.2551533  84.8110771   3.4975743  15.3103197  94.0866089  21.2745643
  14.5978844  94.6403790  20.9551668  14.9247611  93.2127476  21.3372779
  53.8199759  20.0879145  19.0403473  53.9662695  19.6066701  18.2259560
  54.0810299  19.4772065  19.7296369  79.5694828  17.1317959  29.5659471
  79.5186472  17.9836190  29.9995875  80.4253674  17.1319211  29.1373515
 106.5953445  76.0253525  59.4561148 107.0373154  75.9254026  60.2992678
 106.9714928  76.8218279  59.0814495   4.4526404  73.3692408   1.8962114
   3.8418704  73.2659864   1.1664643   4.4314504  72.5253725   2.3475122
  16.4363706  92.1992493   8.7697250  16.1156285  92.7667236   8.0687726
  15.6951165  91.6293430   8.9745945  72.9747057  -0.1861969  45.8998537
  73.2290173   0.7364719  45.9153271  73.0871058  -0.4503347  44.9867105
  74.3834639  63.5104322  18.0589151  73.7005520  63.1313515  17.5055969
  73.9401960  64.2071152  18.5430419   9.2988420  55.4193401   2.6774159
   8.7468195  54.6853638   2.4076414   9.8630726  55.5849457   1.9221336
   4.1516408  71.3100100  14.4503653   3.4986341  71.7211485  13.8839924
   3.6743277  71.1000443  15.2530599  70.8443975  22.1352100  32.1096087
  69.9779224  22.5214934  32.2370505  71.2265205  22.6365113  31.3892555
  31.9466805   5.4319346   1.0282990  31.6341066   4.5912147   1.3625441
  32.4171090   5.8225214   1.7647563  99.3730640  68.2568789  33.6841416
  99.7661495  68.6709166  34.4524431  99.4691563  68.9056587  32.9869485
 104.0874863  95.3309441  59.3315983 103.1595612  95.2989388  59.5643473
 104.2306709  94.5419216  58.8089418   4.7463766 106.5932941   2.3476034
   4.7842973 105.8044624   2.8884712   5.4363018 106.4700699   1.6956437
 112.6631832  97.8905487  30.3232217 113.4513760  98.4315872  30.3708315
 112.1936035  98.0793953  31.1356688  68.5514641  10.7513130  69.1666031
  69.4591951  10.6141162  69.4375849  68.6173153  11.1101532  68.2816553
  15.9698892 103.1843853  34.9035978  16.6984355 103.0596924  35.5117965
  15.7973802 102.3101521  34.5540571  24.3432736  71.9820356  40.0597525
  24.3558836  72.1469021  41.0025644  25.0843668  72.4829865  39.7190762
  25.1338339   0.4923926  10.8490133  25.5932117   0.8320221  10.0809920
  24.5272851  -0.1589206  10.4967058  90.8807182  54.1363716  82.4361038
  91.7797279  54.2855835  82.1432686  90.3739643  54.0654993  81.6271496
   2.4320945  95.9390736  40.9433746   1.9262713  96.0131645  40.1341248
   3.0408332  96.6771793  40.9137630  32.0739651   8.1872857  38.4769058
  32.9816508   8.3348340  38.7425470  31.8998146   7.2766095  38.7147546
   1.4462158  73.5956812  41.4420223   1.6299199  73.7253857  42.3724318
   0.7635863  72.9249239  41.4239025  11.8061829 101.6530895  23.0388594
  12.1934366 100.7938290  23.2059979  11.9868600 102.1558285  23.8331175
  62.3236752   7.7556729  29.6755505  62.3632145   8.7120366  29.6816540
  62.6877356   7.5063217  28.8261271  16.7930639 101.1489677  39.3182659
  17.1636558 101.6170692  40.0664425  15.8610630 101.3663006  39.3375015
  23.3870697  76.7548132  18.2325518  23.7628341  75.9454393  17.8862166
  22.4827242  76.5262747  18.4474111 103.9342213  98.0926418  47.2803020
 104.0530109  98.8554573  46.7144012 102.9858685  98.0192280  47.3873901
   2.2535126 101.4736843  21.1135030   2.2130795 101.1566162  20.2112460
   3.0695391 101.9722176  21.1558390   6.0797834  91.2792397  37.4119377
   5.1443160  91.2807083  37.6147413   6.1886585  90.5607891  36.7888784
  28.0089879   1.5710492  21.2986946  27.3847628   2.2800888  21.1442971
  27.8571272   1.3119248  22.2075534  24.8545718  56.5034437   0.6770734
  24.3602300  55.7540560   1.0091498  24.7325921  57.1834326   1.3396195
  23.7715673  99.3658352  18.8278580  23.7525630  99.7463417  19.7059751
  24.7023273  99.3075371  18.6121809  47.9315996  32.3512816  24.5156193
  47.4015331  33.0432296  24.9111819  48.1214428  31.7524981  25.2378702
  22.7816439  80.0420475   1.8477142  22.3650694  79.3484688   2.3592335
  22.8953671  79.6618652   0.9766443  20.5875468 105.7676983  24.2189050
  20.3502798 105.0231171  24.7716665  20.3475618 105.4946995  23.3334064
 101.2422752  58.0264664  88.7890244 101.1326599  57.3567009  88.1140232
 102.1173859  58.3819151  88.6338615  51.2781715  14.3197489   4.0531090
  51.7310905  14.0230238   3.2637715  50.5829620  13.6755192   4.1868246
  -0.0371313 103.9854050  30.3285432  -0.5896807 103.8646507  31.1007738
   0.6513929 103.3269596  30.4213572  61.9328928  42.3951769  87.8427792
  62.7174807  41.9605303  87.5084972  61.2987900  42.3269558  87.1289921
  76.5246153  70.1613283  55.0969315  75.9502125  70.8294964  55.4708815
  76.9794941  69.7870111  55.8513927   2.1634470  91.0058594   8.1216884
   2.4856916  90.2097893   8.5443741   2.9312637  91.5746212   8.0651152
  56.8304110 106.7366409  32.2343898  56.0741520 107.2890472  32.4322724
  56.8720245 106.7211056  31.2782216  50.5257559  18.7010241  40.2074814
  49.5936632  18.8091528  40.3965569  50.5486012  18.1718600  39.4101787
   3.1399104 100.1225758  11.1437964   2.4481475  99.4697571  11.0364676
   3.3563554 100.3911972  10.2509212  65.2010345   8.4750062  46.5830183
  64.5256710   9.1094124  46.3429308  64.9706173   7.6839530  46.0958052
  63.5857630  11.2587881  23.2426929  63.1276798  10.4822564  23.5642385
  62.8975439  11.9151998  23.1344771  12.1096826  89.1425514   5.3482574
  11.4820933  89.7885323   5.6724089  11.7016482  88.7875175   4.5585155
  35.7045388   8.1210595  27.0854115  36.2699866   8.5619420  27.7195430
  35.7146883   7.2022605  27.3536229   9.0419686  82.4851513  20.4862547
   8.6257750  81.6342449  20.6240058   9.0184623  82.9052639  21.3460135
  73.5797119 106.9883633  86.4275169  74.0824461 106.7553139  85.6470203
  74.2013311 107.4619865  86.9802380  68.5293007   8.4568566  25.4725766
  68.9147234   8.9306927  26.2095714  69.2523050   8.3449435  24.8553467
  82.3755169  22.0947623   5.4543352  82.0082283  22.9779339   5.4909611
  81.6584396  21.5504503   5.1291341  74.6085405  36.0593534  14.3396890
  73.9109993  36.0059190  13.6863780  74.5364761  36.9451976  14.6950972
 104.8475075  96.0467911  20.1199269 105.5487251  96.4715672  19.6258688
 105.1892567  95.9799480  21.0115385 105.9127903  45.4857635  10.2199841
 105.1939487  46.1057091  10.0968170 106.0710716  45.1260805   9.3471682
  79.6052027  65.6387758  50.2584505  80.3118896  65.2016306  50.7335615
  79.8766947  65.6051874  49.3411732  84.9079418  34.1404867  91.9924736
  84.4680500  34.0801620  91.1444855  85.1691914  33.2413435  92.1912766
  64.4956541  16.7704952  84.0844822  63.9611435  16.3424385  84.7532845
  64.8789644  17.5253367  84.5311546   6.2314570  98.1608677  20.7402778
   6.7870224  98.7397671  20.2183127   6.8219978  97.7886105  21.3951969
  13.2149148  53.2011652  31.5090728  13.3309984  52.3796701  31.0316849
  13.7876892  53.1181335  32.2714806  15.0829244  63.5118580  11.3747931
  14.5194530  63.5782766  10.6038713  15.2836037  62.5785732  11.4450955
  43.1543684  42.0685673  81.3320923  42.2885132  41.7670012  81.6070175
  42.9761219  42.7825069  80.7199287  76.3883734  10.9076715  82.8678989
  76.1971188  10.8459520  81.9320393  75.5448055  10.7588732  83.2950783
 103.9270973  49.9596548  56.6441965 103.1886101  50.4726744  56.3160467
 104.0552044  50.2704477  57.5404263  96.8442535  68.3206511   1.0486870
  95.9004879  68.3921337   0.9057233  97.2105885  69.0946388   0.6209369
  74.1644859 106.6014099  92.3581982  73.8720655 107.4510765  92.6880264
  73.3714771 106.0656452  92.3402214  26.9534087  91.8885517  17.0179307
  26.0026050  91.8860626  17.1283925  27.2163534  92.7851200  17.2259116
   1.1598850  63.8696718  66.0098982   0.7558777  64.7334480  65.9268379
   0.7293852  63.3384895  65.3400135  93.9263630   6.7287630  87.0585728
  92.9918098   6.7210603  87.2654247  94.2776203   5.9604442  87.5086021
  78.9040375  70.8719110  30.7838297  79.4307137  71.2166786  30.0627351
  78.3704281  70.1853037  30.3837490 107.9879379  65.5318546  35.6142569
 108.8538551  65.6544399  36.0033321 107.5792980  66.3961172  35.6621599
  61.1183167  75.9136057  19.8900938  61.2443113  75.4941702  19.0389597
  60.1997852  75.7500601  20.1040721 106.0172653  45.9058523  20.6026864
 105.9435081  46.7558479  20.1687551 106.6903687  45.4408550  20.1057529
  98.1360149  90.4360867   9.3241876  98.2286072  90.7956028  10.2064633
  98.8424969  90.8444118   8.8238043  29.5793605  74.6186924  57.6891947
  29.2234373  73.9809513  57.0704603  29.5627642  74.1682005  58.5335970
 102.6915741  70.5983686   5.6032968 102.7423668  69.8466682   6.1937171
 102.1733665  71.2448406   6.0826457 106.4548111  81.8788147   9.8453873
 107.3239326  82.0962048   9.5083630 105.9277058  81.7181587   9.0627080
   8.0967873  95.4576588   9.4525433   8.7784958  95.4979992  10.1232731
   8.0061680  96.3607597   9.1485214  87.7634239  32.6196527  90.5594063
  87.9593945  32.1366954  89.7565460  87.8933525  33.5383248  90.3240490
  45.1857281 105.5432034  84.7106552  45.5528688 104.6875858  84.4884777
  44.3868160 105.6043243  84.1869831  91.5948105  36.6432524  22.4895811
  92.1792412  37.0842481  21.8729806  90.7999992  37.1766400  22.4895358
   0.6548962  38.8017845  11.6359413   0.4588366  38.9338231  12.5634956
   0.0574401  39.3932533  11.1782920  93.0849743  81.1403179  21.9853282
  93.6991310  80.7123756  21.3887405  92.9829121  80.5214977  22.7084279
 102.9056835  57.9706764  31.1803198 103.7160778  58.1734276  31.6476369
 102.5090790  58.8244438  31.0070801  70.8000946  17.3964190  69.8684263
  70.8392000  17.5615346  70.8104658  71.2933493  16.5851665  69.7467756
  87.1645069  45.0297451  77.8672600  86.6981506  44.9048901  78.6937952
  88.0655956  45.2212524  78.1272364   8.7772244  78.4896946  19.3798757
   8.0720717  79.0963030  19.1540074   9.4498885  79.0420198  19.7782350
  87.1560860  28.3829761  76.2467146  86.5659428  27.8780985  75.6871891
  87.1483898  27.9185343  77.0836544  74.2052174  42.2509098  91.4523411
  74.4087076  41.6329670  92.1544552  73.3811808  41.9321632  91.0840988
  55.6861687  90.8951950  74.5133257  56.0772657  91.6682243  74.1062641
  55.2276230  90.4540539  73.7982273  86.1534119  37.3705006  89.0074348
  86.1201572  38.3264542  88.9717007  85.3030968  37.0884943  88.6702919
  59.2281008  17.7563560  73.6693859  59.9548626  17.8522635  73.0538797
  58.5152769  18.2620227  73.2789850  65.6208992   7.0177430  86.1021709
  65.8633423   7.9060835  86.3635159  66.0381413   6.4541173  86.7536736
  21.4762068  80.6362152  26.7830205  20.9981775  80.2651215  27.5246477
  22.3041201  80.9366703  27.1578765  82.7655506  73.8008070  37.1837401
  81.8811798  73.8824224  37.5407624  83.0498981  72.9252720  37.4460769
 111.2015247  46.9118643   5.4621285 110.5035400  47.5378180   5.6551045
 111.9896507  47.3107481   5.8308738  20.0072432  34.7421288  13.0122292
  20.4941535  33.9240718  12.9125595  20.1832366  35.0175166  13.9119077
  87.1262741  82.7692604  40.7320070  86.3030529  82.3728371  41.0172987
  87.7307129  82.6148605  41.4579868 110.3709221  45.1767015  19.0818274
 109.9580002  44.5143604  18.5277176 111.2483883  45.2831364  18.7144625
  20.7566452  55.8243370   1.4473873  20.1185417  55.5352736   0.7950853
  21.1967087  56.5694094   1.0381899  10.7334828  79.5302200   4.2431223
  10.5520260  79.7608137   5.1542372  11.4038181  80.1551533   3.9668328
   6.2465453  47.8080797  10.4715216   6.7102510  47.5535202  11.2692750
   5.3639799  48.0302954  10.7680511   0.7916936  56.0763645   0.6421956
   0.5889069  56.8574572   0.1274151   1.2486929  55.4986477   0.0309417
  96.7971230  47.4059772  88.0469418  96.9083500  46.4850616  88.2831097
  95.9460735  47.4401331  87.6101685  73.2168579  86.2619019   5.6546396
  72.4419403  86.2745953   5.0928813  73.9547491  86.2865829   5.0454259
  99.2744255   6.1931431  64.7075224  98.6844730   5.4415673  64.7652340
  98.6950779   6.9547451  64.7310543 109.8414516  57.2285175  20.6508112
 109.2733192  56.4777613  20.8234930 109.5695400  57.8867674  21.2903428
  37.9209661  97.5140667  33.1532931  38.5908604  96.8973541  32.8581095
  37.2888494  97.5429535  32.4350834 100.5154800  67.8169012  17.7826607
 100.6037426  67.8572130  18.7349308 100.1124287  66.9649792  17.6153255
  79.3881416  66.7190313  44.4861698  78.9004040  67.3079443  45.0619507
  79.9070978  66.1778164  45.0811529  92.3914528  74.7480726  29.2649961
  91.8314171  74.8292065  30.0370169  91.9414139  74.1125774  28.7083602
 106.4228916  97.7341270  28.1288004 106.0451984  97.6434040  27.2539592
 105.7372379  97.4219131  28.7192512  97.0322990  20.3428030   4.4596246
  96.5950108  21.1939406   4.4355944  96.6145420  19.8793042   5.1854861
  76.3825274  35.6176829  91.4200306  75.5798388  35.1865292  91.7133427
  76.1711264  36.5511703  91.4320564  99.8626804  91.9976139   7.6750636
  99.5033073  92.8502369   7.9202312  99.7781563  91.9671154   6.7220914
  51.3238335  82.9125690  30.7885480  51.5455055  83.6297798  31.3824296
  51.3732529  83.3009148  29.9150658  98.1284523  18.8715434  70.0683355
  98.3013630  19.7969425  70.2414513  98.9828396  18.4483373  70.1529264
  10.5231810  66.2734175   2.3282053  10.4297268  65.4062843   2.7226391
  10.3742135  66.1288214   1.3937894 100.5346966  76.1838102  19.4556630
 100.9622478  75.4781914  18.9703405 101.2032318  76.4935207  20.0667048
  92.5776768  30.8650875  80.1915455  91.6685772  30.6830764  79.9535418
  92.6541901  30.5602479  81.0956764 103.0949402  51.1144543  28.4657383
 103.1874371  52.0608854  28.5750341 103.9295387  50.8340216  28.0901790
  98.7104416  37.2079349  91.5899944  97.9526901  37.0505762  92.1532726
  98.9215565  38.1317401  91.7250633  92.2310066  25.0339055  90.6078434
  92.4498272  25.7608914  91.1908054  91.6442585  25.4177117  89.9561882
   0.4877803  83.6603260  20.6810832  -0.1941981  83.8344669  20.0323820
   1.1291367  84.3582344  20.5475879  27.9001427  94.7346115  80.4286766
  28.1016612  93.8333893  80.6805229  28.7550282  95.1383209  80.2789307
  77.6441526  47.6836824  89.0394688  76.8855476  47.6571321  89.6226025
  77.5560284  46.9006538  88.4960175  12.8898013  62.4642277   2.2144772
  13.1460190  63.0840921   2.8973800  13.3601499  62.7590561   1.4346817
  53.9047527   5.8419400  89.0986729  54.5966768   6.2069559  88.5470963
  54.0877962   6.1872530  89.9724483  47.3228168   6.1974144  30.5354142
  48.1735229   6.4461178  30.1739192  47.0723438   5.4160047  30.0425744
  44.1231251   2.1472520   9.8068631  43.1768227   2.1144260   9.9470806
  44.4765806   2.4747886  10.6339192  23.6558104  66.2049294  16.2789059
  23.2112575  67.0247126  16.0631263  24.5841551  66.3920355  16.1396205
   8.2114416  10.1061618  10.9272885   9.1060311  10.3775549  11.1329269
   8.2473350   9.1496748  10.9186018  74.5831347  49.7809887  84.7233486
  74.7510195  50.6742764  85.0234890  75.2157450  49.6422672  84.0185165
  48.1025124   1.8573862  84.4643307  49.0515852   1.9403341  84.3715191
  47.9503155   0.9150853  84.5359993  79.9502516  45.8651686  88.5323811
  79.7280502  46.7947674  88.4803581  79.9743938  45.5733156  87.6210785
  62.2428274  34.5888472  83.8872623  63.1590652  34.4932008  84.1472530
  62.0756197  33.8374710  83.3183098  86.0548687  16.3292265  63.3418274
  86.9258595  16.5693033  63.0256510  85.8485794  16.9914341  64.0014935
  96.5811634  12.2374034  86.1867237  96.3248348  12.9535401  85.6056213
  97.0410728  12.6670742  86.9079018 111.9881535  62.6392937  10.7909894
 111.2282753  63.1953096  10.6187499 111.6494846  61.9355679  11.3444352
   7.9530483  61.0039186   2.0201933   8.8109672  61.3229895   1.7401884
   8.0630177  60.0560713   2.0958254  89.3650913  56.5576029  29.4066978
  88.6831093  57.0817089  29.8267460  89.9818993  57.2016096  29.0587854
 107.3867989  82.9285336  58.8039351 107.9379177  82.6141739  58.0872154
 107.4814415  83.8807201  58.7789488  11.8491066  82.7831554  20.3789330
  10.8981752  82.7628326  20.2714682  12.1899199  82.4061203  19.5678091
  69.3500376  73.9733267   1.9862171  69.7081137  73.8934946   2.8703201
  69.5799398  73.1480455   1.5592664  91.3722420  22.5871420  90.6717396
  91.7263508  23.4440541  90.4339600  92.0487881  21.9655180  90.4032326
 101.5626717   1.4607121  73.5319328 101.3519096   0.5310555  73.6188078
 101.8758869   1.7173599  74.3992662 109.5480251  64.8937559   2.6346609
 109.7320557  64.9635220   1.6979116 109.5026970  65.8004808   2.9380262
  12.4976015  66.4046764  14.9869370  12.5576115  67.3295355  15.2262545
  13.2129252  66.2713003  14.3650413  71.4798737   1.3020842  84.3469143
  72.3348045   1.1106272  83.9613438  71.4875269   0.8426607  85.1866150
   6.2331396  11.3600039   4.4168425   6.8235958  10.6402147   4.1943642
   6.3412833  11.4754343   5.3608829  74.7494030  19.3560052  90.1993370
  75.0855589  20.0353026  89.6147156  73.8050842  19.3511844  90.0428963
  17.0152330  70.0104761   3.4839940  17.2085452  70.9404659   3.6022654
  16.5365314  69.7628593   4.2750454  74.8458910  30.6722713  90.6895828
  74.6919537  30.0315595  91.3838673  75.3146887  31.3860393  91.1220169
  84.6186447  47.4438047  19.5750594  84.5040607  47.0702505  18.7012398
  84.5545959  48.3894825  19.4415498  88.6425304  41.5652037  84.0151215
  89.4764423  41.4034986  84.4563484  88.7925148  42.3601055  83.5033894
  69.0157747  14.8369896  70.2384138  69.4382143  15.0184703  69.3988657
  68.2963943  15.4666638  70.2856255  63.9278889  32.0396876  80.0679302
  63.5958481  31.8692398  79.1865015  64.6116590  31.3825011  80.1975346
 112.9220676  69.0076351  38.6183167 113.2582378  69.1634655  37.7357411
 113.4187126  69.6088552  39.1734004  93.7127781   4.5026380  68.2472277
  93.0890846   5.0687760  68.7019014  93.6168289   3.6504632  68.6724615
  31.7289376  79.1117477  15.9134459  30.9343648  79.6111441  16.1018300
  31.9330883  79.3212891  15.0020480   3.7060124  52.1138477  13.9609671
   2.7571520  51.9897127  13.9389217   3.8266283  52.9634237  14.3851244
  93.9391804  40.1638031  60.3154898  94.7904396  40.4715538  60.0042439
  94.0216351  40.1552010  61.2690926  94.0625572  82.8691578  26.3392925
  93.7466526  83.6862850  25.9536099  95.0133801  82.9073524  26.2358451
  16.8445826  76.2152338   8.1023222  17.0606875  77.0944452   7.7916437
  15.8886862  76.2068224   8.1515408  64.5286894  14.0790009  13.6235726
  64.5773125  13.3213067  13.0406761  64.6828365  13.7194109  14.4971657
  76.9727325  32.2314143  81.0884190  77.2184134  31.7108107  80.3236675
  76.8722820  31.5904927  81.7922401  81.3249683  40.8936501  79.7367191
  80.7280064  41.4674425  79.2564869  80.7669640  40.1889563  80.0657654
  53.2158375  38.6750603  69.5679903  53.5796976  37.8324747  69.8398113
  53.7139368  38.9096475  68.7849808  45.8516932  28.9573097  89.4412804
  46.3201666  29.4709229  88.7832737  46.3232613  28.1250429  89.4757938
  25.6284428  85.1420403  17.7299392  26.0979962  84.5630074  17.1295488
  25.1395988  85.7341671  17.1584082  53.3343697  97.6642227  85.2134895
  52.9179096  98.3744717  84.7252846  52.8902340  97.6638508  86.0614109
  58.4680033  42.9024029  87.9233837  59.1025352  43.6189032  87.9081917
  58.1943417  42.8441954  88.8387775  38.2019091   9.6048093  44.9993706
  38.7135267  10.4061711  44.8884678  37.3286748   9.8320085  44.6798754
  45.9790087  13.1482518  66.5066338  46.7724276  12.9384089  66.9992590
  45.8440304  12.3914742  65.9362793 101.0230064  95.8414459  16.9178116
 101.5795040  95.3691483  17.5370717 101.4066124  95.6552219  16.0608411
  56.9037199   3.8046622  18.7989557  56.6199636   4.4415766  18.1431699
  57.4334812   4.3130365  19.4130719   5.5391085  81.4301777  10.0640059
   5.4070127  82.1009159  10.7340002   5.0290650  81.7368031   9.3142945
  28.5631275 105.0435162  71.6511488  29.1148186 105.7861328  71.4053965
  29.0688491 104.2732906  71.3918686  58.2839870  91.5042782  38.3698225
  57.5381994  90.9047794  38.3447242  58.5962534  91.4603996  39.2735910
  17.8236604  72.6007557  88.0999660  17.0594084  72.0826626  88.3524132
  18.5727906  72.0727634  88.3761215 105.4047298  65.3064728  26.5988708
 106.1513615  65.8435917  26.3337779 105.4419231  65.2999878  27.5553250
   7.7075571  99.6134472  18.8573515   8.6540496  99.7553062  18.8733912
   7.3939055 100.1705456  18.1449664   8.5369295 105.1609039   2.0872812
   8.3395898 105.5066299   2.9577741   8.0277050 104.3524456   2.0295624
 109.3146038  78.0124521  22.5347543 109.7442818  77.1866655  22.7576494
 109.9704933  78.4957218  22.0322657  83.9610958   1.9256619   3.8334870
  83.4748650   1.8682346   4.6559930  84.7966671   1.4970365   4.0187782
 112.7869034  72.9677200   5.9891212 113.5971069  73.2680845   6.4009351
 112.9240799  72.0313501   5.8454901  53.3197498  15.5909407  86.6050339
  52.8992510  14.7641635  86.3687038  53.2390976  16.1334872  85.8205795
  96.2683868  76.4242458  22.1521187  96.7154217  76.2438393  21.3251686
  96.5685940  77.2984314  22.4009323   3.0941415  96.6465950  18.0785251
   2.4937627  97.1530247  18.6256170   3.6811411  96.2173748  18.7009645
 110.9945393  67.0196581  48.2270098 110.8342838  67.9622316  48.2728720
 111.0646152  66.7438745  49.1409349 113.9923869  88.4656048  40.5699158
 113.1387210  88.0693245  40.7443953 113.8549812  89.4023037  40.7111502
  38.1728148   1.8794544   8.5974461  37.7090931   2.6823062   8.3594930
  38.6779070   1.6540892   7.8162134  98.6377239  63.8902426  30.7225609
  97.9905987  63.6506462  31.3859272  98.3443356  63.4425068  29.9290347
  55.9408474   6.1272085  50.5536222  55.0398588   6.3815576  50.3542137
  55.8684731   5.2347219  50.8919430  49.6741533  63.8295889  26.6393375
  49.9047709  63.5275555  27.5178719  50.0974131  63.2033968  26.0519958
  91.4067459  76.9984436  25.5502653  91.4439964  76.4609146  24.7591257
  91.2590981  77.8878736  25.2287865  19.9789357  77.0449924  11.0294557
  19.0337837  77.1787214  10.9584963  20.2610493  76.8502760  10.1357388
 107.5606537  83.1995296  14.6285605 107.0782471  83.9758587  14.9128854
 107.0103741  82.8114223  13.9482701 111.4594460  82.4977398  39.8776412
 110.9641075  82.0542336  39.1890383 112.2611427  82.7912903  39.4448185
 107.5162315   7.4815339  74.7038937 106.6666889   7.8449023  74.4539595
 107.3647022   7.0870972  75.5627823  76.7040110  12.9274487  84.7504997
  76.9037485  13.7434709  84.2917538  76.3310003  12.3590207  84.0767193
 109.5923233  78.6562204   8.4483463 109.0330029  79.0041351   7.7538335
 110.4182816  78.4508181   8.0103695  10.2465951  97.9970360  15.8450961
  10.7452762  97.8120899  16.6409242  10.7338214  97.5559330  15.1492012
 101.7587185  92.6019001  23.3313203 102.6632214  92.9132080  23.2966447
 101.5530586  92.3623371  22.4276900  98.7277222  32.9289818  83.4937286
  98.5563278  32.6519561  82.5936699  98.7179375  32.1168518  84.0002728
  25.7735872  74.1577625  35.7946634  25.9419632  73.5463428  36.5116358
  26.1058211  74.9972105  36.1127424  34.1049170  17.1833384   7.1759927
  34.9177933  16.6794658   7.2156918  34.2842650  17.8777254   6.5420437
  95.5099583   9.6497095  67.7838945  96.1323929  10.3704584  67.8804922
  95.7856178   9.0060878  68.4365749 112.2797504  22.9216580  92.8276798
 112.5250092  22.3258356  92.1198141 113.1111994  23.1652121  93.2346301
  80.4068756  50.1404238  91.2603378  80.8719444  49.3660355  90.9436893
  80.3161526  49.9968004  92.2023487  49.7540808  16.5812671   3.1518593
  49.1418028  17.0018291   3.7555751  50.2053690  15.9271681   3.6854583
  86.2279129  10.7564378  25.7569408  85.8671188   9.9520457  26.1297870
  86.1401653  11.4046979  26.4557195  13.4187138  17.2119880  48.7146854
  14.1863465  17.6035130  48.2979345  12.7817857  17.9249871  48.7614489
  99.0547943  99.3796921   3.9894152  98.8598919  99.5011616   3.0601734
  98.7291336  98.5021591   4.1897210  84.0409088   2.8807878  80.8217716
  83.5765171   2.9332727  81.6571331  84.7046471   3.5685688  80.8730888
  91.0946846  39.5812249  92.7791405  91.3609791  39.8960114  91.9152927
  91.5734959  38.7602377  92.8929615  89.8188114   7.2176749  92.0219326
  90.3301430   8.0196714  92.1295071  88.9256573   7.5226772  91.8623066
  72.8336477  23.6875486  87.6324940  72.5179911  24.0277410  86.7953205
  73.2942820  22.8800344  87.4045277  95.7108593  75.3090620  37.7486873
  96.2259293  76.0572863  37.4468660  96.0428143  75.1289320  38.6282253
   1.5711845 106.9302464  26.2129450   1.9253314 106.8444443  27.0980716
   2.3371595 106.8723202  25.6418419  73.9837313   6.0061574  90.5136585
  73.8447905   6.4957744  91.3243389  74.7267580   5.4335320  90.7040501
   4.9248052  31.5540838  17.5667739   4.9182838  31.7979908  16.6411948
   4.0062594  31.3850880  17.7764070  41.1988878  10.9050262  16.3617194
  41.1200953  11.6229773  15.7335722  40.3150558  10.7956851  16.7125976
   8.1167591  63.8004971  14.6606565   8.8236141  64.4439888  14.7106922
   8.4029788  63.0856085  15.2292049 114.0373135  62.6617289   3.1777102
 113.4940052  63.2067490   3.7469164 113.7049007  61.7736101   3.3080301
  10.0504076 102.5803852  15.5224180   9.4283748 101.9176865  15.2221775
   9.9171692 103.3199883  14.9295783  66.0844564  67.3055696   3.2021910
  65.7222128  66.4533615   3.4445810  67.0110941  67.1332264   3.0352509
 100.8045864  72.4178171   6.4807934 100.4172897  72.7430058   7.2934973
 100.0558376  72.2542286   5.9073377  35.4024625  57.7963161  13.1245387
  35.5449939  57.4452257  12.2455323  36.2409687  57.6746988  13.5698974
  62.7845526  13.9669001  82.3187256  61.9920635  13.4635448  82.1321011
  62.4636126  14.8260105  82.5928783 109.4194984  81.7249680  16.3867414
 109.2030621  82.5001812  15.8686483 109.1484356  80.9878540  15.8395493
  89.1354084  28.4425426  82.5068283  89.4114304  28.9690113  81.7565823
  88.4802246  28.9817858  82.9497528  36.2689924  68.6365700  11.7002451
  35.9804916  67.8766537  12.2057462  35.4601336  69.0979767  11.4787078
  13.5945284  11.8182838   3.3874989  14.4981146  11.5138650   3.3032766
  13.5469615  12.5873291   2.8195745 104.2675781  74.7036743  24.1364598
 103.3355045  74.9175024  24.1783619 104.2922211  73.7478781  24.0908599
  99.8473263  77.1906996  34.3208909  99.4742584  76.3097525  34.3521333
  99.2711258  77.6739597  33.7287068  44.5443201  98.2562447  34.0895271
  43.9690208  98.7554836  34.6692014  45.4138279  98.3461571  34.4795346
  19.0284395   1.6119590  33.0155659  19.1636717   0.7457580  33.3998036
  18.3163655   1.4871614  32.3881817  62.7607775  -0.0021394  11.3211894
  62.4770975   0.7856757  11.7849815  63.6815691   0.1594464  11.1156034
  13.6643243  55.8869743  85.5313015  14.2437959  55.9412527  86.2912369
  13.2563221  56.7512846  85.4790020  58.0384398   5.0321162  36.0230732
  58.4828091   4.1872209  35.9529328  57.6144171   5.0092363  36.8809271
   3.4419879  66.5154219  86.0991573   4.3373093  66.4599609  86.4331532
   3.5114285  66.2490892  85.1823807  22.1759748 100.4253101  31.3707137
  23.0487919 100.1268578  31.6263437  22.0604730 100.0931644  30.4804492
  99.1223717  42.9786491  85.1708603  99.4993305  42.7011251  86.0057926
  98.1806183  43.0231571  85.3362465   7.8298295  85.0852108  28.5944104
   8.4871900  85.0911617  29.2901635   7.3343688  85.8935452  28.7260962
 107.5275517  78.8588238  24.4358778 108.1313610  78.4998035  23.7856865
 107.5114536  78.2048416  25.1346493 101.9453907  68.3977556   7.2663069
 101.2910175  68.2461119   6.5843731 101.5362930  69.0331888   7.8537560
  55.3895998  30.5963254   9.8044699  55.9339619  31.2379932   9.3482167
  55.1549149  29.9587178   9.1302240  73.3563137  54.6258640  88.7971783
  73.5885429  55.3744984  89.3465805  74.0969229  54.5292282  88.1985188
  79.6203089  77.4177837  87.6374626  80.4019451  77.7291822  87.1810532
  79.4574785  76.5496445  87.2686100  96.5891647  58.1053495  81.9190693
  96.0370064  58.8870144  81.9378567  97.1145058  58.2022381  81.1248016
 101.1300564  37.9102540  72.0509291 102.0316219  37.8758144  71.7312002
 101.1176777  38.6543465  72.6529312  81.9540024  55.9662819  80.7014656
  82.2949600  56.4901066  81.4264393  82.6311493  56.0210991  80.0271511
  28.7784076  95.1008797  23.5395622  29.4149017  94.9717045  22.8364134
  29.2602229  94.8926258  24.3400097 107.1548557  95.7587433   1.2913743
 107.7495575  95.0795269   0.9732102 106.5234661  95.8759594   0.5815525
  25.9664941  19.9531400  19.0357590  26.0631347  19.0032351  19.1033721
  26.8637371  20.2817464  18.9791512  89.9749947  60.9972906  84.2870712
  89.5912743  61.8131971  83.9656830  90.5574799  61.2695599  84.9961567
  18.3715880  38.8155770  71.0833120  17.4610817  38.5203671  71.0754204
  18.3376551  39.6862507  71.4795542  20.5697036  85.3501129  33.9583945
  20.4599977  85.7960701  33.1185627  21.4855766  85.5012417  34.1919899
  61.1336040   1.0859790  51.8168831  60.5146742   0.3565548  51.8500614
  61.1885214   1.3114414  50.8882380 113.0832195  98.8089085   2.2071150
 113.4289265  97.9279709   2.0633663 112.4693680  98.9459991   1.4855704
  43.3993244  25.2471018  23.4164310  42.5412941  25.6706309  23.3911109
  44.0035772  25.9099770  23.0822134   0.8477424  78.9396858  10.8575571
   1.6095889  79.1339540  11.4035273   1.1875930  78.9416313   9.9627221
  93.0601883  52.1312189  18.9142072  93.7932968  51.9714022  18.3198655
  93.2458973  51.5828514  19.6764660  69.2573166  38.4528446  89.0247726
  70.0774527  38.9319658  88.9062405  68.6672115  38.8218880  88.3676529
  66.5455484   4.9213105   7.1122748  66.2077999   4.6988824   7.9798484
  65.7677650   5.1524818   6.6044933  85.1413441  77.5634813  86.1958027
  85.5503273  78.3577728  85.8521938  85.5589581  77.4277639  87.0463371
  94.3701077  10.8984959  85.0866222  95.1453114  11.3976717  85.3437805
  94.5442772  10.0094891  85.3957558  44.2818308  95.1593399  91.0699844
  44.0132761  94.9048424  91.9527912  45.2057695  95.3931808  91.1587715
  93.6312771  85.2332306  25.0703263  94.3406677  85.8482552  25.2567291
  93.2287407  85.5676842  24.2688656  92.6819515  65.7543898  78.4855556
  92.6881599  66.3444519  79.2392302  92.3804474  64.9175119  78.8390541
 102.6412582  72.2425795  24.9355245 102.1098042  72.5477839  24.2002416
 102.4500465  72.8597879  25.6417274  61.1660147   8.2232606   3.9536306
  61.4803839   8.4565884   3.0801547  60.3890753   7.6876104   3.7933871
 112.3842907  98.7744427  18.5722828 111.7370892  99.2987251  19.0439689
 112.5823021  99.2868423  17.7884007  22.9486179  75.4979277   6.2921011
  23.7593222  75.1649761   6.6769838  23.2372594  76.1428642   5.6463677
  69.6615267   6.1481118   5.5882418  70.3699732   6.6947126   5.2482963
  68.8639498   6.5439111   5.2368993  87.6064110 100.9212399  25.9808016
  87.1079063 101.4263058  26.6231728  87.0707989 100.1446247  25.8188629
  77.5331163  63.1789589  84.4570541  77.8807735  62.2902203  84.5312595
  77.8426933  63.6238956  85.2459908   4.5110574  37.9912376  74.3945503
   4.8239601  37.2969294  73.8146734   5.2222598  38.1173682  75.0226545
  90.3721237  56.7632008  91.5608311  90.6501675  57.0860767  90.7037067
  90.2465820  57.5539303  92.0854473  80.9483337  64.7408581  86.7551613
  81.3560200  64.1786051  86.0964489  81.6452408  65.3396797  87.0234013
  42.0520163  27.8366828  66.4906263  41.6415644  27.6356244  67.3316622
  42.1847630  28.7844467  66.5093946  48.1507397   9.6501404  28.5762548
  47.6301193   9.1036522  27.9875779  48.9104986   9.9081171  28.0542946
 112.6423359  60.2027893  89.6828461 112.9773712  59.7609282  88.9026260
 111.6907501  60.1773453  89.5824814  50.7640600  80.5097675   3.0198270
  51.6300869  80.9174633   3.0167592  50.6183004  80.2639294   3.9333647
  83.5259724  58.2209492  89.4573116  82.6931190  58.1791878  89.9272537
  83.6186218  57.3565006  89.0568352  57.7017832  17.7445519  13.3258569
  58.3104992  17.0125353  13.2266021  56.8560219  17.3309994  13.4987605
  77.1882629  42.0620298  85.1945019  77.1010637  41.3970041  85.8774090
  77.3000622  41.5619135  84.3860340 104.9743843   8.7098467  61.2830830
 105.9280491   8.6282623  61.2731981 104.7150421   8.3840221  62.1449471
  32.1490645  37.1433210   9.9508828  31.7541623  36.9548464   9.0995538
  31.7197466  36.5362740  10.5537188  61.3851976  34.4640398   7.5150818
  61.7990923  35.1270056   6.9624501  60.7325125  34.0531373   6.9481665
  15.9425402  67.6331949  14.7855115  15.4572630  67.1051407  14.1515601
  16.1774695  67.0177460  15.4799604  50.3599501  48.5652161  84.0580368
  50.5079937  49.3615150  84.5681572  51.0211182  47.9505348  84.3762398
   5.8166486  40.7427931  83.0419254   6.1132610  40.1784372  83.7558937
   4.8813218  40.5558538  82.9616261  21.3491440  99.8204899   1.1024410
  21.8015122 100.3894424   0.4796352  22.0237422  99.2126751   1.4052783
  72.5352144   0.7742535   9.5677561  72.8511381  -0.1093072   9.7568196
  71.8105698   0.6437497   8.9561307  56.1181688  21.6365385  33.8364244
  56.0714912  22.1582603  33.0352640  55.3256035  21.8690515  34.3201756
 108.6572838  77.6883459  40.4158926 109.2844391  76.9848680  40.2485037
 108.2578468  77.8610039  39.5633245  60.2811432   2.4589741  17.2711253
  59.7185850   3.0992857  16.8355095  60.6564760   2.9347584  18.0120611
  96.4237118  10.7696378  73.3244276  96.2408924  10.6102145  74.2503834
  97.3055840  10.4221475  73.1911182  30.1260114  54.0418768  22.4555826
  30.6279707  53.8946915  23.2572079  29.6885538  53.2067156  22.2901654
  79.5850182  36.6546488  66.1321306  78.7369490  36.7832351  66.5569544
  79.8863983  35.8041334  66.4515495  90.7302761  58.9575195  82.7981186
  90.5141068  59.7012472  83.3605862  91.6553783  58.7854338  82.9736042
  15.6579256 102.9693890  18.6233580  15.0709832 102.3315144  19.0293670
  15.7068098 102.7000141  17.7061450 112.1049404  83.5672760  18.7539232
 111.2458611  83.9865685  18.7049615 112.2764778  83.2676983  17.8611398
  47.9165792  90.3533554  22.5649571  48.0503416  91.1240482  22.0132637
  48.7031221  90.3085423  23.1086206  55.2250099  40.7850504  84.2912388
  55.6234503  41.2318468  83.5443497  55.7318306  41.0828114  85.0466919
  45.9669447   5.7748485  13.8464069  46.0329914   6.5053040  14.4614720
  46.4366055   5.0586301  14.2738199 111.3477230  15.3099108  93.0204678
 110.6416988  15.9419417  92.8851986 111.2224960  14.6594131  92.3295212
 100.3083897  93.1799030  19.6922207 100.5620193  92.3866844  19.2202997
 101.1121273  93.6975670  19.7398722  79.9356508  38.0949092  75.4267168
  80.8062649  37.7109504  75.5308199  79.9135399  38.3955574  74.5182276
  92.3633289   3.9390025  85.7008839  92.8067970   4.7328728  85.4019928
  92.5206757   3.9177099  86.6448212 103.6421585  78.2216167   7.4028099
 103.2860470  78.1759405   8.2901275 103.7886715  79.1553211   7.2512984
  87.6173782 101.2321377  19.6645868  87.8354645 100.9612846  18.7727880
  86.6647625 101.3256741  19.6603012  95.9254169  37.7472520  86.4656258
  95.1317406  38.2019758  86.7476368  96.2080288  37.2574043  87.2379017
  16.6320872 105.1159286   7.9036337  16.3373852 105.0171661   8.8089675
  16.5914953 104.2311478   7.5406671 108.0801201  51.7474461  90.0053024
 108.1467438  50.8324385  90.2783394 107.2200394  52.0285511  90.3175163
 102.4299145  89.8282623  61.4010572 103.3686829  89.6413994  61.3952780
 102.3708153  90.7504940  61.6505098  48.4506321  96.9939327  38.8381767
  49.1257524  97.5986576  39.1459894  47.6912451  97.1818352  39.3897700
  61.8628407  44.8543835   9.4445491  61.9796467  45.4877710   8.7364483
  61.1082745  44.3305826   9.1753125  87.3417568  30.3049660  83.5828972
  86.9060516  29.6715784  84.1531754  87.4035263  31.1004853  84.1116333
 110.7378960  86.0148907  26.5106320 110.2156448  86.8155575  26.5597939
 111.6189575  86.3168144  26.2897015  85.7339478 101.4850044  44.8165369
  86.2715340 101.8674374  44.1230106  84.9046803 101.2736225  44.3877411
 104.8489189  54.3331861  11.1911464 104.9374676  54.1281986  10.2603555
 105.0521183  55.2666378  11.2512147   0.4189306  89.0954971   6.5366334
   0.1831499  89.5347023   5.7194823   1.1319086  89.6238327   6.8954486
  18.3995581  98.1544209   2.6125246  18.0082166  98.8911819   3.0818528
  17.6672840  97.7514648   2.1460147  46.3088322   4.7344548  24.2062163
  45.7366896   4.1342503  23.7280560  45.9416246   5.6019133  24.0362000
  38.8961363  27.9932499  55.9087276  38.7372994  28.4637761  55.0904322
  39.6906424  27.4858117  55.7428980 110.7021427 105.5523205   8.2341170
 111.6316319 105.5065918   8.0100495 110.6810951 105.4674435   9.1873133
  24.9120402  88.8608456  26.3474655  25.6547713  88.4761620  26.8128633
  24.4311929  88.1092167  26.0009551   6.8620509  91.3246822   8.3602881
   7.6199418  90.8376503   8.6837518   7.2168154  92.1748924   8.1004345
  54.6607113  89.0834713  19.8765564  53.8082838  88.6540413  19.9485981
  54.6250772  89.5477772  19.0402663  97.4447250   6.8721616  92.1624756
  96.5714169   6.6689801  91.8274021  97.4461365   7.8237468  92.2659874
   9.6832287  86.1955738   2.6109737   9.1612476  85.8009434   1.9123808
   9.8407495  85.4792881   3.2260787  94.6418762  78.7392282  21.4347100
  95.5927944  78.7656927  21.5409636  94.3099976  78.5130215  22.3035693
   5.0644833  92.4820900  14.8877633   5.2854240  93.3929634  15.0819743
   4.1206181  92.4274540  15.0373149   3.5607150  81.6513920   1.2427963
   4.1928315  82.3552895   1.3883896   4.0057653  81.0493851   0.6463452
   8.3068365  96.4196491  41.4860725   8.0709350  96.1577225  42.3760033
   7.8564847  95.7895279  40.9236145  63.9595079  30.6613302  89.7805691
  63.2710218  30.5015421  90.4260826  64.7618008  30.7299662  90.2981091
  43.6219788  10.5218828  14.7861958  43.2693434  10.8100641  13.9442754
  42.8490353  10.3655243  15.3287280  26.8767452  94.7009277  26.8244982
  26.3350010  94.3470669  26.1191463  26.7180634  95.6445122  26.7980194
   8.8375419  65.9819365  56.8424034   9.7358024  66.0709667  56.5239191
   8.4182292  66.8107939  56.6113091 112.0817852  49.4797659  85.8081055
 112.3252201  50.0230789  86.5576267 112.7527809  48.7977648  85.7786560
  39.9060702 105.8581448  15.5928981  39.4016576 106.2932873  14.9055445
  40.7074451 105.5699444  15.1558983  64.2545986  22.3807168  47.8446579
  65.1837063  22.1791363  47.9557800  63.8334370  22.0022821  48.6164379
 104.0779495  46.9893169  84.6764660 104.9258041  47.2194529  85.0564766
 103.4577847  47.5860310  85.0954628 111.9918346  80.5292797  27.4755478
 111.8496990  80.8640671  28.3609557 111.1410618  80.6189060  27.0461535
  87.7851200  38.9496160  71.7906618  87.5587273  39.8795152  71.7744637
  88.3230305  38.8477087  72.5758314  87.6728916  28.5033345  87.5031662
  88.1060791  29.2834949  87.1568584  88.3831596  27.9797339  87.8740883
  93.9421940  33.1672835  86.4678192  94.3193722  33.3565068  85.6086540
  93.4895706  33.9740896  86.7136478   7.9147553  20.9331536  85.6617355
   7.6248753  20.5159092  86.4729786   7.4286646  21.7571020  85.6292152
 102.0548630 103.4407520  30.0017715 101.8161964 103.5818863  30.9179306
 102.9739380 103.7032413  29.9505210  70.5037594  16.4868283  47.8361940
  71.2502289  16.6654348  47.2642565  69.8973465  15.9871566  47.2895479
  20.8065081   8.1831455   3.3490291  20.6856060   7.2689545   3.6056790
  20.1570106   8.6638731   3.8621414 104.0255833  83.9705658  19.0633786
 104.3382835  83.4317493  18.3366585 104.6955299  83.8723469  19.7399545
   9.3783385 102.0063019  12.1420789   9.0939844 101.3966179  12.8230000
   9.5241433 101.4554024  11.3730025  31.5819454 102.3984337   6.1420435
  30.7238436 102.7748966   5.9466738  32.0125270 103.0550289   6.6895086
  12.0605934 102.9876041  44.6715260  11.4636791 102.6078701  44.0267611
  12.7528477 102.3340702  44.7711182  44.4937897 102.0170784   9.0217656
  43.5872984 102.3215961   8.9795554  45.0017548 102.7202320   8.6170697
  61.4378881  13.8908541  29.4941711  61.8900919  13.1796801  29.9480176
  61.6932964  14.6802485  29.9715137  37.1020722 104.2400265  21.0882854
  37.5273752 105.0228310  20.7381773  37.4029875 103.5300350  20.5211997
  34.2392182  15.0887144  29.3054581  35.1010656  14.6787190  29.3786478
  33.6364174  14.4481528  29.6830082  60.2579355   4.2163989  22.5890350
  59.5087671   3.9583236  23.1260395  60.5986023   3.3922315  22.2412896
  66.4413023  25.2189207  15.0021088  66.9283533  24.5487809  14.5226049
  67.0817375  25.9121227  15.1619446  83.0535889  34.3729115  15.5446672
  83.1274128  35.3238988  15.6247032  83.6764050  34.1414785  14.8556328
  99.3613720  42.7888775  88.1329155  98.5851383  43.3140421  88.3275700
  99.0145397  41.9757175  87.7658844  86.8065834   4.0423524  19.4400597
  85.8863449   3.7880275  19.5087850  86.9906998   4.4993642  20.2607131
  35.0950050  25.1430655  15.4367721  35.2171063  25.5645823  16.2874460
  34.1576934  25.2254152  15.2609980  57.3075151  32.0886469   8.7985551
  57.4386311  32.8452969   9.3699765  57.9100609  31.4260697   9.1364384
  65.5145502  37.2616553   3.5574263  65.5492926  37.2793007   4.5138329
  65.1649475  38.1190038   3.3145982  43.5743666 105.3269386  78.7846470
  42.7590418 105.3452015  79.2857933  43.9008284 106.2258148  78.8255405
  80.9356213  70.5634928  83.6323833  80.7054329  69.7085619  83.9961529
  80.9454823  71.1506414  84.3882847  92.0367336  13.4125888  76.3988495
  92.7443886  14.0413988  76.2572622  91.2366867  13.9344525  76.3370752
  56.0041952  11.2635958  19.3861842  55.7587576  10.5488253  18.7987351
  55.6246996  11.0205913  20.2306747   9.0246361  76.8952417  83.4119415
   8.2577670  76.4408875  83.0630779   9.6087694  76.9914532  82.6597691
  28.8149023  99.8587132  24.4936824  28.6022496 100.4657173  23.7847733
  28.3303475  99.0614223  24.2797542  80.9618855  48.8461399  62.3472261
  80.4077530  48.2206726  61.8803644  80.9289551  48.5603952  63.2601881
  96.0032749  29.2537570  92.3443604  95.9350681  29.0099573  93.2674694
  95.4776764  30.0500417  92.2674751 101.4305019  45.4796219  77.7176762
 100.7947254  46.0477829  77.2826958 100.8999920  44.9050426  78.2696295
  49.7506523  36.4453387  26.5392685  48.9822674  35.9384632  26.8017435
  49.9084854  36.1880064  25.6309175  49.6542263   0.4520566  33.9390373
  50.3658867   0.6244887  33.3225656  49.6627188   1.2041372  34.5310950
  11.3654745  41.6739035  81.0763741  10.7229197  41.4545488  81.7510796
  11.2787628  42.6202440  80.9616661  95.5918312  52.0191145  26.4825535
  96.4459038  51.7175436  26.1729765  95.1408958  52.3143053  25.6915069
  65.3867674   3.7079969  41.7250347  64.4824648   4.0046489  41.8273687
  65.7698774   3.8021794  42.5971508  74.4737959   7.4649590  20.8973145
  73.9847088   8.2501477  20.6513286  75.2464914   7.4773318  20.3324938
  77.8428268   7.6286459  26.6824579  78.6055803   7.1560645  26.3491321
  78.1964922   8.4581554  27.0034957  26.1807942   3.5719776  20.8064604
  25.7495999   3.2534775  20.0134540  25.4806328   3.9884585  21.3090014
  18.2684672  60.9022379  78.3897066  17.3933101  61.2899637  78.3889484
  18.2061124  60.1690054  77.7775669 102.0883846  76.0202694  27.3027349
 102.8350735  76.4964962  26.9395733 102.4429703  75.1631784  27.5391507
  18.2775939  51.5621185  74.2434406  17.7578378  51.0709238  74.8796892
  17.7508390  51.5511036  73.4442902  68.6337805  12.4811959  25.2052712
  67.8766918  13.0334544  25.4003644  68.3954477  12.0242929  24.3986297
  80.3682995  57.4678612  90.1839828  79.5955563  57.6215839  89.6404171
  80.6151390  58.3368063  90.5005932  92.4745941  53.0118704  88.1346416
  92.0876598  52.2967911  87.6294899  91.7331314  53.4140587  88.5870934
  92.8444576  83.3442211  71.8783760  92.1088314  82.7321625  71.8563700
  93.1147003  83.3609772  72.7964830  18.4852755   6.2384480  34.2177629
  18.0520344   5.3849375  34.2104554  17.9718292   6.7624187  34.8326278
  18.1555045 104.0771675  43.7645578  17.2969425 104.4087601  43.5015965
  18.7524641 104.8094273  43.6107159  56.1842394  10.3153694  15.5561316
  56.9444752  10.8138371  15.2564633  55.4559994  10.6524026  15.0343013
  83.1291008  20.0898027  87.5531864  82.6911259  20.0597048  88.4037685
  83.9872074  19.6963561  87.7115726  91.3925076  27.0629764  38.8556790
  91.9781303  26.5880632  38.2659888  91.0416031  26.3894987  39.4383693
  22.1199226  92.0392323  14.5133078  21.8531299  92.0445347  13.5940552
  21.9983411  91.1318398  14.7927570   6.3665301  86.7712975   4.2541388
   6.2837195  87.1015739   3.3595461   5.4875469  86.8567944   4.6233419
 106.7837524  84.5570374  67.4119234 106.4593410  84.7229385  66.5267897
 105.9965134  84.5391655  67.9561234  97.5520515  16.9814384   2.2566040
  97.4203873  16.9513047   3.2042271  96.9992542  16.2783742   1.9155106
 101.4575386 101.6742802   9.2647731 100.8930016 102.4380398   9.1456354
 100.8635235 100.9792519   9.5481986  64.7803259   4.5401356   0.6981518
  63.8258982   4.5954999   0.6508606  65.0863075   5.0128448  -0.0758977
 112.3089123  40.3898907  90.8857059 111.5802097  41.0104990  90.8936024
 111.8915081  39.5312405  90.8169842  63.8718176 105.0405407  23.0864573
  63.9306736 105.3886890  22.1967602  63.7801886 104.0951157  22.9681230
  71.4104652  61.9169807  53.4617567  71.8421030  62.7401829  53.6903620
  71.9768238  61.2391138  53.8305044  42.4377966  15.5220401   5.2074730
  42.4256516  16.4597356   5.3993362  41.5968132  15.2002239   5.5321485
  59.9719524  81.2125206  12.6951468  59.1295910  81.3391495  13.1317520
  60.5163813  81.9335461  13.0113173  35.6797957  82.9149723  12.8194773
  35.3855181  83.1218147  11.9324303  36.1575460  83.6950684  13.1013358
  62.3482275   3.6259615  15.6219983  62.6701736   4.3055427  16.2142444
  61.7437363   3.1100309  16.1555088  66.9400311  41.0725260  15.5763495
  67.7269888  41.5030384  15.2423072  66.6901731  40.4599571  14.8845685
   3.0967781  21.4752150  78.6018038   3.6627123  22.2286463  78.4336090
   3.7021849  20.7455635  78.7334299  43.3983088   3.3801275  23.5530281
  43.0923080   3.9463386  24.2615485  43.0178404   2.5240010  23.7493014
  82.2288799   2.9454976  46.4590073  81.7211533   2.5275159  47.1545172
  82.6194477   2.2168291  45.9765863  55.5334711  20.5504823  15.0067794
  54.9344778  19.9364591  15.4315341  56.1796236  20.7600379  15.6811714
 102.6719856  56.5629911  76.4753532 102.5599480  57.4088335  76.9092131
 102.6826572  55.9266329  77.1903133  36.9883418   5.9771770  15.2649224
  36.3217187   6.4725292  14.7890329  36.5430021   5.1738572  15.5343318
  61.7549133  99.1579151  23.5420370  62.6813269  99.2664051  23.3270431
  61.5916014  99.8029137  24.2301750   6.8936396 101.6588306  23.5211754
   7.5840092 101.7776489  22.8688693   6.9624478 102.4287701  24.0857053
  38.6143541   5.7529569  77.0720196  39.3486738   6.3392901  77.2542763
  38.6760449   5.5764997  76.1332464 105.9283733  54.6504879   2.5750563
 105.4235172  55.4635525   2.5582522 105.5600357  54.1549253   3.3064801
   9.2094558  72.8129292  39.8043680   8.9863175  72.5522280  40.6979418
   8.4125245  72.6476336  39.3005729  57.5675678   8.8867009  81.6075134
  57.0542049   9.6799666  81.4544773  57.4995565   8.7355542  82.5502586
  60.7962751   7.6515615  45.4866028  59.8425102   7.5916916  45.5412197
  61.1133480   6.9645321  46.0728550  64.1028881   6.5067178  72.9630089
  64.4748783   5.7387680  73.3967209  63.3028793   6.6948777  73.4537363
  11.1543143  54.9050045  22.7937627  11.0121763  53.9589453  22.8254175
  11.9286919  55.0491905  23.3376193  67.8938627   2.3891367  78.2862282
  67.5493240   3.0178013  78.9205074  68.6532307   2.0015663  78.7214041
 103.9377975  72.9246378  16.8776870 104.2876244  72.1648455  17.3430526
 104.5809078  73.1020689  16.1912763  54.1976213   0.2366252  86.5942097
  54.7910213   0.9809117  86.6949368  53.9483690   0.0061928  87.4891949
  25.5376744  63.8001299   5.1569235  25.0188208  63.0146503   5.3302509
  26.3379765  63.6759472   5.6671464  12.4106252  75.9156036  10.1066864
  12.6228797  75.3756094  10.8679938  12.3688042  76.8080521  10.4502177
  19.9502313  87.1073914   5.8950192  20.6217408  87.0186043   5.2186871
  20.2550983  87.8316307   6.4416158  29.7657609  82.2741985   4.5380965
  29.2221618  83.0585957   4.6119732  29.1392469  81.5518284   4.4947076
  15.3477895  86.7775631   6.0110569  15.3620672  85.8390903   6.1989367
  16.2696779  87.0167255   5.9153801  71.0006285 106.7036343  70.9077597
  70.6130409 107.4539566  70.4571724  70.2516794 106.2226295  71.2598181
  97.9841137  48.9772749  76.9680786  97.2576904  49.4711924  77.3483133
  98.7692547  49.3995714  77.3165751  31.8746257  20.1592422  19.1663873
  31.4839530  21.0311246  19.2249119  32.7277851  20.2500892  19.5907688
  26.7721534  79.5842505   1.1190236  26.3504696  78.7977600   0.7728246
  26.2755370  79.7938299   1.9100232  68.7488365  80.1013947  89.8683548
  68.4238815  79.8183489  90.7230568  68.1102037  80.7499409  89.5720959
  35.4483271  41.7814779  30.8674622  36.0293555  42.5370502  30.9554672
  35.8519626  41.2473440  30.1833487  12.4637783  34.3618655  18.2405925
  12.6021290  35.2832365  18.4600651  11.5517008  34.3183947  17.9534423
  69.3179512  24.3488216  83.7841702  69.2699385  25.1741338  83.3016872
  69.4888210  24.6099782  84.6890640  96.8992043  82.3796272   1.4789642
  95.9611607  82.3216915   1.6604905  97.0529556  83.3086205   1.3070153
 111.4392376  57.9777431  12.8890204 111.2574387  57.5676966  13.7346220
 111.9528198  57.3257637  12.4121642  97.9889965  71.7393875   8.9795238
  98.5365391  72.2536373   9.5727992  97.2022152  71.5440702   9.4885141
  87.1166325  39.6756816  79.2299557  87.0053196  40.6229496  79.3107033
  88.0613136  39.5526052  79.1368246  70.2077103  50.9782696   8.3201432
  70.7379866  50.8590031   9.1080612  70.3764009  51.8816376   8.0523831
 109.3590832  79.2307901  15.2352512 110.2326012  78.9110041  15.0095761
 109.1027641  78.7102890  15.9965718  64.0701628  17.9273283  77.9340124
  64.5678902  18.4717119  77.3239708  63.4987593  17.4014759  77.3743629
  26.0313487  93.6347866   1.6702133  26.0410118  93.3985138   2.5977433
  26.9517684  93.6142445   1.4082196  72.3615551  31.4615440  89.7190857
  73.2943010  31.3785219  89.9173641  72.2937918  32.2775149  89.2232704
  10.1104057  21.1207771   6.0502160  10.7559919  21.6610718   5.5946618
   9.2673743  21.5149736   5.8263028  91.3873005   9.1696060  88.2450390
  92.0653725   8.5076213  88.3800411  90.5635452   8.6903077  88.3340645
  98.7854481  59.2773962   3.6104232  98.1078911  58.6055660   3.5343549
  98.4846783  59.9863434   3.0419463  79.9718904  11.7890787  51.4985991
  79.7589302  11.0535800  50.9242105  80.9142113  11.7114651  51.6477442
  87.3200798  63.0488205   7.8558522  88.0218506  63.6327505   8.1435710
  87.3401260  63.1029034   6.9003916  60.7723618  93.6818123  71.2524176
  60.3624010  93.3198833  70.4668140  60.9765959  94.5877075  71.0203218
  48.5249662  72.6601887  78.3430862  48.8138485  71.7488432  78.3902884
  48.3298349  72.8968573  79.2498064 105.9962273  28.6769843  79.3853712
 106.7554474  28.4209704  78.8616657 105.2558708  28.6105800  78.7823009
  17.8330708  26.2761974  10.1206756  18.2437932  27.1101594  10.3488171
  17.9355347  25.7364058  10.9044862  10.9216285  57.9254770   1.4834282
  10.7650256  56.9861221   1.3868791  11.7400789  58.0815220   1.0122380
 109.1037178  53.1673050   6.2062472 108.9466190  54.0440226   5.8556515
 110.0496483  53.1321573   6.3484234  83.9879322   3.6679015  77.4140596
  84.1170979   4.5750359  77.6909256  83.4588337   3.2780993  78.1100035
  84.6077538  26.4554596  89.5428371  84.7266769  26.1210370  90.4317951
  85.0238991  27.3174047  89.5535278  68.8857126   6.9895405  92.0475197
  68.9137125   7.9216427  91.8315697  68.0730629   6.6760331  91.6505909
  93.9918327  66.5832663  17.4209893  93.2808971  66.6702032  18.0560052
  94.7891426  66.5992117  17.9504049 113.4332657  19.8678291  67.7233076
 112.5676727  20.1313090  68.0356264 113.8765621  19.5310545  68.5019588
  30.5121136  89.4802094  92.0072556  29.6203494  89.1788197  92.1809006
  30.5683351  90.3282452  92.4475956  18.4612989  86.1172390  16.3338196
  17.7612042  86.1634254  16.9849467  18.2749319  85.3200340  15.8378816
  28.6593890  40.6736946   0.7584765  28.5286450  41.6044331   0.9397662
  29.5943880  40.5956316   0.5689542  72.6751900  82.2912216   8.3761144
  73.2779646  82.2048664   9.1146511  72.6662874  83.2286072   8.1825668
   1.0350432  66.5119314  27.7027893   1.4763705  66.1851072  26.9187951
   0.6215555  65.7379246  28.0851150  12.2918952  42.1353579  10.0240529
  12.1553028  42.0691681   9.0789634  13.2319129  42.2882605  10.1200664
  91.6431808  59.3788385   7.5236756  91.7588043  59.3767786   8.4738636
  91.1924553  60.2028465   7.3390323  18.1727469  48.5827494   0.3652974
  17.7099109  49.3477345   0.7070808  17.8451490  47.8511333   0.8884092
  86.8419933  33.9746714   0.6429343  86.6694260  34.9150825   0.6884922
  87.1066380  33.7364054   1.5314302  16.8536615  97.5846577  35.5406094
  16.9758344  97.8201008  36.4603209  16.0095787  97.1337891  35.5188870
  12.0370233  81.7804718  80.9592342  11.4872324  81.1518574  80.4914761
  11.5221107  82.0228100  81.7288971   3.1251445  46.5274096  16.2828469
   3.3467555  46.8438148  15.4070568   2.2686571  46.1130333  16.1781895
  11.3575506  40.1120043  21.6724491  11.9214082  39.6818280  21.0296059
  10.7819021  40.6707430  21.1502719  91.1163902  63.8142586   2.8394994
  91.8603134  64.3809080   3.0437493  90.3563404  64.2834568   3.1836087
  44.7528839 101.9744396  28.3856797  44.3919802 101.0901928  28.4496760
  45.6148720 101.8530750  27.9875803  89.8210335  37.1005344  80.5445004
  89.7087860  37.6559162  79.7730160  89.2117500  37.4601722  81.1892223
  91.8050671  41.8597794  62.1390009  91.2735844  41.5535593  61.4041662
  92.3660278  42.5379562  61.7626572   6.1681366  71.8337488   9.0774047
   6.1105174  71.0139799   8.5866004   7.0725751  72.1226215   8.9558482
  15.2270603  42.1421432  10.0129354  15.6813562  42.8983498  10.3844106
  15.8742011  41.7320919   9.4390881  10.2250874  82.8441048  12.5428081
   9.8779738  83.4826565  11.9199181  10.1980722  83.2940769  13.3872151
  23.4980941  65.0821590  24.4095612  23.1556392  64.9013519  23.5341954
  22.9228044  64.5927906  24.9976039   2.6536596  62.9200459   2.0413284
   2.8338137  63.7755203   1.6515437   1.8214253  63.0361748   2.4997292
  83.8577080   4.8870340  47.8726292  83.4000874   4.2502239  47.3237276
  84.1806221   5.5453479  47.2573423  83.3279514  41.8965006  77.0940447
  83.3380508  40.9580183  76.9059610  82.8330612  42.2805214  76.3702774
  34.5649028  88.9975452  85.5488110  35.4639816  89.2509460  85.7577896
  34.4943380  89.1235447  84.6025658   8.9652973  78.5862303  23.3986545
   9.5659804  78.3955812  24.1191149   8.2460046  77.9656696  23.5159373
 102.8265572  17.3076332  73.6072206 103.0192089  16.9944549  74.4909859
 102.9941750  16.5523279  73.0436134  48.2950878 104.1532516  91.7912197
  49.1879892 103.8785553  91.9997883  48.3918810 104.7232533  91.0283566
  77.1675158  96.9806480  61.5789366  76.7628145  96.1972427  61.9513988
  77.8566217  97.2131920  62.2012615  64.9652529  20.6200576  82.1191502
  65.9004211  20.7832670  82.2418690  64.9239016  19.9992537  81.3917351
  27.7181077  69.3200445   4.4201455  27.7665830  68.3643341   4.3977222
  28.5663462  69.6108150   4.0852204  18.2704055  56.5131617  90.4507732
  18.4747124  56.1810684  89.5765877  17.4535668  56.9991398  90.3375149
  18.3644474  54.2370367  13.6132419  18.9565790  54.4950438  12.9068112
  18.7316239  53.4182930  13.9465153  61.4889240  15.8928597  71.5986919
  61.1281061  16.7086220  71.2514496  62.2601032  16.1647284  72.0962858
  63.0652046  34.8914266  72.3332834  63.4272432  34.4667602  71.5555811
  62.2973204  34.3658209  72.5576115  30.3482485  98.9836884  84.5951557
  30.5669618  98.2918549  85.2194786  30.5919790  98.6228752  83.7427235
   8.1445348  91.4756680  79.9601412   9.0323985  91.6065502  79.6272755
   7.6981616  90.9892845  79.2670202  76.2642050  98.5347080  88.2882118
  75.7156467  97.9257298  88.7826347  75.8937311  99.3971539  88.4757614
  83.5034847   2.0037924  56.2446165  84.3437386   2.4329501  56.0832691
  82.8870678   2.7247456  56.3730335   8.9952248  89.6442986   1.0541713
   8.8563126  89.1567135   0.2422617   9.8272622  89.3136692   1.3927430
 104.9439621  59.4953585  32.1320057 104.7665215  60.2499914  31.5705109
 105.3409100  59.8699760  32.9183388  75.1361132  12.4088812  86.9498348
  75.6785631  12.8400898  86.2895012  74.3210030  12.2022724  86.4925098
  48.0628490   8.6055964  14.9047494  47.4703979   8.5783309  14.1534233
  47.7795982   7.8788728  15.4596150  98.9047146  81.8552399   6.8397284
  99.6300983  81.2719154   7.0628250  99.3123055  82.7149200   6.7346179
 109.5421505  32.9318905  84.0477085 108.9034748  33.4982228  83.6145782
 110.3207111  33.4800434  84.1457272  98.3051109  31.4556241  81.0972023
  98.7910080  30.7046175  81.4379692  98.6862564  31.6157699  80.2338886
  18.7848222   7.7602255  90.8062649  19.6088743   7.4938715  91.2139702
  18.2924688   8.1786811  91.5124607  21.1168242  74.9290609  34.9950552
  21.7782307  75.5303240  35.3374815  21.4194894  74.0616894  35.2639365
  59.5669079  97.7680779  81.5322781  59.6167898  98.3521461  82.2889900
  59.4709444  98.3552361  80.7824326  71.8886518 102.3312187  73.5334206
  71.4074039 103.1431675  73.6926651  72.2076941 102.0686150  74.3968344
 107.7050781  13.5571301  68.3503294 106.8413448  13.2186735  68.1144238
 107.5225639  14.2930055  68.9346313  73.2675934  93.3746147  91.6489983
  73.1319141  92.4987698  92.0105457  72.6105833  93.4526157  90.9572792
  87.7602768  16.2625694  77.2150135  87.7822304  17.1428227  77.5903845
  86.9430351  16.2346780  76.7174530  60.5699253   2.7568001  10.8680618
  60.3171921   2.4717198  11.7461765  60.2372408   3.6518782  10.8018148
  78.4350061  31.6536117  55.2739620  77.9259586  32.4631619  55.2323437
  78.8225031  31.5692902  54.4027758   6.2162191  82.7982426  14.0809548
   7.0573443  83.1245995  14.4006848   6.1123037  83.2059097  13.2211626
  20.5851245  48.5202312   5.3160262  20.3098679  48.2391787   6.1886507
  21.4396429  48.1077433   5.1899922  52.6138926  81.5359592  58.9187813
  53.1795692  81.1874676  58.2297277  52.7171612  80.9226894  59.6464348
   7.2613931  54.4789648   5.0303257   6.3920885  54.8617554   4.9119604
   7.8373939  55.2308607   5.1685560  26.1550736 106.2121677  88.9991283
  26.2556767 106.0363293  88.0636120  26.9159532 106.7470074  89.2254829
 112.2535801  36.5884876  19.9574101 112.9642296  36.8000484  20.5627656
 111.4951897  36.4378190  20.5216503 107.1732998  72.7420330   0.9625915
 107.7302456  72.4889135   0.2264035 106.7133713  71.9376183   1.2026297
   2.4832101   3.1175357  81.6618156   2.4173315   3.1605554  80.7078552
   3.3136559   2.6702258  81.8246174  89.2404175  83.1905556  19.7927523
  89.4438267  82.2839165  20.0226760  88.3365917  83.3141613  20.0826645
  36.3570523  90.1664639  14.4319046  36.2962627  91.1209869  14.4694531
  35.5792522  89.8584461  14.8970795  27.7406192  88.9170265   5.3185451
  28.5406113  89.0723133   5.8206677  27.4857378  89.7830105   5.0002170
  42.5201511  61.9435024  29.9466372  42.2061872  62.7441740  29.5264173
  43.3408737  61.7428780  29.4967508   6.7334956  34.7222590  21.7130399
   7.4108356  35.3961706  21.7703462   6.0298228  35.1320958  21.2099409
 109.1012764  25.3277183  87.1318626 108.4636593  26.0385418  87.0655251
 109.9520206  25.7649589  87.0958805  12.5661027  38.7063837  82.9098988
  13.4211266  39.0789652  82.6946068  11.9903326  39.0057993  82.2062874
   6.4332086   2.0765308  84.2733002   5.7880026   2.2712144  83.5935688
   7.2617453   1.9953811  83.8008881  82.5290775  32.7642941  72.2255516
  81.9581413  32.0411015  71.9662094  83.2306099  32.3479104  72.7262640
  83.8931751  52.5695705  78.3319902  83.0606556  52.9669857  78.0766296
  83.8513279  52.5186348  79.2869186  29.4352055  97.2237682  72.0046663
  28.5752296  97.4638271  71.6596413  29.2672729  96.4594650  72.5559235
  17.8298485 106.1903477  18.0992174  16.9896960 106.4573669  17.7262831
  18.3225763 107.0061684  18.1880486 113.7005901  43.7205172  58.4084845
 113.3590889  42.8752136  58.7001562 112.9208088  44.2337751  58.1969595
  48.3371019  78.4776354   6.4322752  47.3927402  78.3310032   6.3782889
  48.5964775  78.0670023   7.2571003  30.0525784  85.4975128   5.4086912
  30.3579259  85.3093147   4.5212349  30.5281591  86.2883377   5.6629568
  60.0670052  10.0433934  10.7796621  59.7465992   9.3532282  10.1989353
  59.2912674  10.5671823  10.9799445 107.5432014   5.3449351  67.7841854
 108.1707382   6.0256457  67.5411749 107.9009151   4.9647981  68.5865355
  78.6802912  20.9014606  86.8819427  78.8476276  21.2276173  87.7661705
  77.8427315  21.2943506  86.6362572  98.8103771  64.5105600  88.3595562
  99.6083736  64.4052744  87.8415394  98.6721802  65.4569960  88.3968925
  31.7439437  57.3471689   6.9457847  31.1977935  57.9032946   6.3901991
  31.2641692  57.2891998   7.7720344  76.2373877  30.8697224  83.3236885
  75.2975464  31.0412574  83.2644653  76.3610983  30.5149412  84.2040539
 109.3541622  52.3656130  87.8020573 108.9909363  52.1973372  88.6715317
 109.0178680  51.6521025  87.2597980 107.2309589  49.4298124  77.7113008
 107.3414803  48.7016487  77.0999146 107.6481915  49.1299105  78.5188961
  40.7493067   1.4992176   7.2079670  41.1980057   0.9288105   6.5838403
  41.4168692   1.7130780   7.8597748  62.3050594  32.8806949  88.7704468
  62.9432774  32.2106767  88.5255241  61.4580107  32.4395728  88.7060165
  81.2755775  73.8073111   7.5059772  81.8726921  73.6699581   6.7705697
  81.5209484  74.6633291   7.8570670  79.4624424  21.8599677  69.4140339
  80.1912689  22.4522948  69.2291117  78.9555359  22.3080373  70.0911665
  96.0223389  78.9712095  24.8924994  96.5792084  79.0789652  24.1214538
  96.6270638  78.7237835  25.5920100 102.7163315  70.6503153  18.6789882
 102.3506260  69.7681046  18.7437057 102.5668240  71.0355043  19.5424175
  92.4446583  75.7670546  36.6055965  93.0352497  75.9386253  35.8721137
  93.0174828  75.7345295  37.3717833  53.5227728  83.1053638  17.2105300
  53.8911676  82.8768444  16.3571286  52.7363396  83.6106014  17.0043945
  74.2553282  95.0290871  72.6154089  73.3042097  95.0925636  72.7024698
  74.5327663  94.5251369  73.3804464  10.6933129  92.6892948  10.3903532
  10.4721916  91.7671776  10.2598381  10.5976665  93.0835629   9.5233834
  85.9531021  16.7457020  85.4877949  86.4664268  16.0477579  85.0808430
  85.4874229  16.3140476  86.2040615  92.5790596   2.7191529  70.7399750
  91.8039703   2.1754096  70.5992460  93.2770252   2.2690144  70.2641058
 111.0223103  55.6699276  30.2592134 110.1838112  55.2539635  30.0589228
 111.4031696  55.8655643  29.4031143   2.8881797  36.4695525  92.0989132
   1.9610295  36.4088583  91.8688297   2.9834887  35.8992147  92.8617096
 102.9892445  71.4319801  21.6184306 102.3353004  71.9341469  22.1046543
 103.2602119  70.7419729  22.2239852 103.3602810   8.6707449  70.7949877
 103.9285374   9.1765141  70.2140284 103.8420582   8.6247581  71.6208220
  40.6038427  97.4875641   0.4190639  40.8457708  98.3886242   0.6330846
  40.4030371  97.0862293   1.2645422 111.1032104  72.3344803  13.0164659
 110.7038498  71.8883371  12.2696781 110.5562019  72.0890379  13.7626302
   2.5550568  29.7952104  78.0532265   2.7212715  29.8493910  77.1121264
   1.6778010  29.4181561  78.1201887  88.1646538  95.5579090  33.8797140
  87.2474480  95.3133106  33.7567258  88.4549522  95.8423901  33.0130911
  31.8488669  96.6199303  66.7408752  32.3612046  97.0446777  66.0528898
  31.4854431  97.3440742  67.2505474  79.6905708  48.0391502  79.9502754
  80.5365849  48.3426666  79.6210814  79.7790527  48.0703449  80.9028625
   0.2663571  31.6057754  80.6930542   1.2090813  31.4522552  80.7557774
  -0.1233714  30.9350276  81.2538052   4.3488356 102.8610516  10.4325759
   4.1540816 102.4342251   9.5982361   4.5241192 103.7728691  10.1999819
   4.4832453  16.6681254  80.9678268   5.2702451  16.3352442  81.3991642
   4.7777340  17.4518490  80.5038357  50.2721691   8.6814582   5.1612532
  50.5112410   9.5710331   5.4215109  50.3229332   8.1732500   5.9708083
  18.5545421  31.4354348  27.0420647  19.3745029  31.5452957  27.5235462
  18.2537723  32.3285389  26.8743324  18.0654740  49.4306993  51.7506742
  18.0762446  49.3158054  50.8004570  17.2286379  49.8591185  51.9306564
  79.1764641  99.9411201  73.8245678  78.3312225 100.3107548  73.5692978
  79.6166039 100.6506157  74.2926741  15.2257812  14.8313582  85.5221176
  15.6037045  14.4192791  86.2990379  14.7865319  14.1164315  85.0615025
  78.8333273  22.0326018  89.3357468  79.2729664  21.8126631  90.1570702
  78.8038540  22.9893231  89.3285751  51.4818525 101.7004681  89.1837502
  51.0252237 102.1328735  88.4621239  51.2729216 100.7724094  89.0775490
  55.8413219   4.2858112  92.4282169  55.0050783   4.4668067  91.9990730
  55.7438660   4.6525010  93.3070087 110.9691048  73.5347986  32.5052190
 110.5198669  72.7591848  32.1693063 110.4390907  73.8140535  33.2517600
  90.9846115   6.9113433  73.3438015  90.6969070   7.0715922  74.2425680
  90.6926250   6.0196972  73.1542253  73.5706282  25.1385307  91.2683010
  72.9708004  25.2877045  90.5374241  73.1137228  24.5115614  91.8289948
 100.2394676  88.0038261   2.4944989 100.4621124  88.5785866   3.2268348
 101.0487080  87.5272465   2.3094612  80.6428814  12.4345672  71.8639755
  81.3339233  13.0373657  72.1384335  81.0484505  11.9001770  71.1812019
  26.5396571  48.8983631  31.5940738  26.1703944  48.2586718  32.2029018
  25.9129119  49.6218348  31.5975332  31.7511892  68.1064653  -0.0246166
  30.8286738  67.9739046   0.1936068  32.1362042  68.4695625   0.7729777
  63.1603479 106.0219574  73.7243414  63.1473923 105.8204460  74.6600008
  63.2994556 105.1758003  73.2990074  12.9907370  23.6237121  78.4762907
  13.6785018  23.8316345  79.1087294  12.9356372  24.3997049  77.9185867
 107.2937584  42.6363993  70.6086540 106.3832188  42.6952934  70.3193712
 107.5151348  43.5255766  70.8854055 108.2764912  65.1273346  91.5553951
 109.0146923  65.3424501  92.1255016 107.8251457  65.9610128  91.4231205
  40.2392721   9.8634648   9.3630421  39.4627547  10.4217041   9.4033253
  40.6972170  10.1468909   8.5717231  29.4614434  69.6784401  28.8909650
  29.0763044  69.5467138  29.7573066  30.1529860  69.0191221  28.8335156
  79.1283846  49.1035461  82.7273655  78.2496548  48.7664843  82.9018879
  79.0026474  49.7535896  82.0360851  46.6217345   0.9594410   0.1789483
  47.5722522   1.0445469   0.1046762  46.4425487   0.0519865  -0.0673190
  48.3640957  95.7056046  85.8524227  48.2451105  95.0027657  86.4912415
  49.2341852  95.5504227  85.4848766  25.9413028  46.8805122   1.4549975
  25.4826498  47.0817614   2.2706982  25.5684423  46.0462189   1.1701196
   2.7957687  65.4793119   1.5334827   2.1266696  65.8762789   0.9758486
   2.7460387  65.9701872   2.3537268  57.9105377  25.0826192  16.5148890
  57.8411055  25.6230855  17.3018503  57.6236534  24.2134905  16.7951524
 110.2938557  29.8895311  78.8211823 110.9985733  29.6077490  79.4044447
 110.0718403  30.7706761  79.1220570  82.6299667  15.6591618  82.9967690
  82.0366669  16.2226021  83.4935093  82.6427746  14.8356867  83.4845734
   6.3241464  78.9136362   9.6202236   5.7614875  78.7552500   8.8622266
   6.3216990  79.8650074   9.7257000  17.3781681  65.9898758   5.9803116
  17.2254455  66.4289761   5.1435918  16.9531178  66.5528440   6.6273302
  81.3495922  28.9663029  11.5812051  81.7704105  28.7304354  10.7544577
  81.9740677  28.6946583  12.2538686   6.1715221  21.2283015  82.2391224
   6.4374596  20.3691602  82.5668144   5.3042102  21.3712120  82.6180363
  46.6127253  77.5079727  30.9250808  46.8967152  76.6921186  30.5128145
  47.1679974  78.1810904  30.5316138  12.1056128  73.1861162  18.3530056
  11.8199921  74.0397930  18.6784101  13.0316520  73.1369734  18.5902143
  29.6363664  27.7091289  56.5837097  29.7199702  28.6205888  56.8638611
  29.8214388  27.7292109  55.6447887  31.1772132 103.2162380  13.7677228
  31.8786550 102.6018333  13.5515928  31.5181589 104.0711308  13.5047460
   4.0711024   6.1352831  92.2095013   4.1091451   7.0163387  91.8373108
   3.9704081   5.5592817  91.4516640  29.8685575  79.4005394  21.0769391
  29.1039753  79.7052813  20.5882859  29.5567751  78.6318398  21.5545607
  87.0052338  27.6000643  91.6695213  86.8305683  27.5971889  92.6106453
  87.8854561  27.2328663  91.5881634  32.4537230 105.6488609  16.3757122
  31.5276289 105.8049202  16.5607309  32.7341318 106.4228630  15.8873188
   7.7110350  39.8672462  87.3929787   8.4076571  39.2119122  87.4315453
   7.7047664  40.2617407  88.2650852  87.4012280  82.7787971  11.6421759
  87.5973511  83.7123775  11.5634191  88.2060051  82.3933887  11.9886208
  11.1181962 106.1646652   6.8333530  10.5231774 106.8396854   7.1597499
  11.8920684 106.6475105   6.5431529 110.7670498  43.2034588  92.4281311
 109.8808193  42.9228735  92.6563835 110.8607292  44.0614176  92.8421021
  67.7326870  17.5761020  31.5600014  68.5785294  18.0122960  31.4574289
  67.8051472  16.7845762  31.0266471  20.2595639 107.3371792  11.3219464
  19.4343138 106.9218922  11.5723979  20.4880476 106.9309807  10.4858673
  33.8760877   6.8545771   7.3265541  33.1662679   6.9725353   7.9578030
  34.3468690   7.6879358   7.3370218  16.1319077 103.5988998   3.8671416
  16.4215827 104.5073891   3.7836781  16.1839950 103.2482529   2.9780045
 100.1387405  46.9596720  75.9966040  99.4433117  46.5761948  75.4622221
  99.9828529  47.9030180  75.9515476  92.1971416  69.3934202  63.8689375
  92.9478073  69.0765667  64.3712807  91.9130039  68.6349869  63.3587646
  64.2539215  40.7126331  87.1710300  64.8965073  40.6609774  86.4634705
  63.6656618  39.9738812  87.0147419  11.0242748  36.5329599  81.2919807
  11.8567920  36.4599466  80.8252811  10.8061361  37.4639535  81.2484455
  86.9797707  36.4311719  77.1881866  86.1859512  36.8852282  76.9054842
  86.7983627  36.1714792  78.0914497  48.4686947  34.0223646  74.8578405
  48.8529730  34.8760533  75.0572824  47.5963497  34.2253804  74.5201588
   9.9338025  62.6779413  92.0619011  10.0945985  61.7858505  91.7544079
  10.5057251  63.2239580  91.5224552  67.7902222  13.4492218  12.9287863
  67.5391960  14.3355489  13.1888688  67.3762751  13.3238924  12.0748711
  52.7111673 106.0719204  90.1089668  51.9296741 105.6602764  89.7401237
  53.1381559 105.3736019  90.6052113 102.3498249  79.1247892  50.9661770
 102.6910019  79.7488403  50.3255606 103.0673885  79.0033913  51.5879488
   3.3223614  23.5516667  59.8591375   3.1351262  23.2871652  60.7598114
   3.9415494  24.2764187  59.9461508  22.5316143  83.2783318   6.0587174
  23.1967568  83.2164574   6.7442757  22.2764349  84.2008781   6.0551459
  20.7303286  62.2964191  79.2773914  20.3483558  62.3089409  80.1549816
  20.1253009  61.7645359  78.7604046  87.8251553  21.4383721  27.0001698
  87.9720497  20.5216289  26.7672825  88.5804081  21.6724157  27.5396657
  38.0475473 102.7276707  40.4265642  38.5654616 103.5289574  40.5036688
  37.4349618 102.7668285  41.1610270  82.2344085 106.6294388  22.4201560
  82.6669666 107.0383836  23.1697488  81.3260469 106.9259367  22.4767303
  86.9745922  35.9302187  91.0626793  86.1441422  35.5068040  91.2801743
  86.7394352  36.6066265  90.4275322 103.1653881  34.7707987  79.6237659
 102.3007584  34.7501516  80.0339127 103.7641811  34.4823885  80.3125954
  27.3549461  98.1756878  53.3130360  26.4015627  98.1704617  53.3982754
  27.6098418  97.2590542  53.4181547  19.0344501  18.7739241  64.2665339
  18.2567489  19.2380297  63.9566660  18.7692189  17.8546524  64.2952299
 101.9634151  26.3989282  84.9292374 102.3617554  27.2411036  84.7094822
 101.9637775  26.3762283  85.8861637  93.1976223  23.3195519  79.9238396
  92.6494598  24.0270400  79.5844173  93.4817982  23.6284065  80.7841206
  14.4793868   1.6999964  44.2497540  13.7172401   2.2236575  44.4970322
  14.1110694   0.8732343  43.9382458  52.8416204  59.7945929  14.1446877
  52.6646185  59.4552946  13.2673168  52.8456450  60.7457447  14.0373480
  28.6336708  87.9634476  15.7562983  29.2951536  88.6361122  15.5944419
  27.8400350  88.4543324  15.9693766  33.8301659  63.5250187  16.6141069
  33.6270475  62.7615070  17.1544969  33.9326549  64.2414331  17.2405922
  35.7320762 101.0115623   0.3112942  35.1517034 101.6842842  -0.0448741
  35.1775646 100.2356339   0.3930007  14.9007750  44.9891233  70.5568218
  14.0660810  44.5530415  70.3855038  15.5616379  44.3201447  70.3780603
   4.3599844  85.2931023  26.1110997   4.9356359  85.0449085  25.3877354
   4.6163243  84.7156429  26.8301654  22.0250821  36.9038796  51.4966536
  21.1337161  36.6610694  51.2461662  21.9278359  37.3229790  52.3517132
  15.1280117   9.2427927  17.8740954  14.3369710   8.8514173  17.5035393
  15.8100092   8.5868508  17.7296972   4.2696878  49.5137978  75.4603291
   4.3848306  48.6152267  75.1512337   4.4878152  49.4765425  76.3915968
  78.3822489  51.2444925  81.1679173  77.7800512  51.6170025  80.5238438
  78.7584019  52.0045757  81.6117764  68.9727783  30.4840589  91.8253326
  69.8930264  30.7091403  91.9621372  68.8251495  29.7256517  92.3903561
  41.8698072 106.7285633   8.7574852  40.9473944 106.9491386   8.8868260
  41.8869781 106.2454224   7.9313403   5.3222144  90.8719063   3.6691990
   5.0428843  90.0248814   4.0167132   5.1251483  91.4946365   4.3689126
  97.6949978  35.5754900  15.8843946  97.3385239  35.0040078  15.2042699
  98.6072445  35.3000569  15.9747839  19.3785679  13.9073145  85.9017086
  20.1900935  13.6433291  85.4681587  19.6373272  14.6280539  86.4760017
  21.2164783  82.9594803  14.6495140  21.8492365  82.4693966  14.1244757
  20.3634167  82.6352406  14.3607485   2.7866316  36.4832520  86.8323231
   2.3409520  36.6228747  85.9967995   3.6513340  36.8754315  86.7110062
  12.3588157  25.2008390  84.7797203  12.6526487  24.5278311  85.3936863
  12.7291131  26.0147524  85.1212788  35.6245232  83.2692242  20.2855444
  35.4185939  84.2006302  20.3648996  36.4428306  83.1626797  20.7705712
  60.0042677  17.7106583  30.1257515  59.8323536  16.7719901  30.0510621
  59.3133259  18.0355072  30.7030725  92.1937656  78.4720850  67.5163841
  91.9671345  79.2588472  67.0205212  91.4525414  77.8817749  67.3808813
  95.2285862  55.9353447  12.2246528  95.5849648  56.4247799  12.9660547
  95.9421730  55.3577518  11.9537079  47.0769835  93.7325001  13.1630635
  47.0249367  94.2217922  13.9841115  46.3057566  94.0107918  12.6691043
 106.1341763   2.1562360  88.0408955 106.1445141   2.7680543  88.7769699
 105.2383041   2.1989578  87.7064991 107.3387814  42.5507450  80.0124168
 107.6315022  41.6439867  80.1036739 106.9971180  42.7802563  80.8766079
  90.9585857  67.4995279  82.1219349  91.0946465  68.2819605  82.6562786
  91.4389420  67.6754951  81.3129044 111.6120529  63.3610392  80.1308155
 111.8941593  64.1083241  79.6033669 112.4241734  62.9946375  80.4807377
   1.3164759  30.0249720  68.3831120   1.0121228  29.7419143  67.5208616
   0.6587701  30.6567860  68.6737394 111.7840290  19.4991231  74.4509983
 111.9265175  18.6001968  74.7474098 110.9861279  19.7761881  74.9013662
  12.3418951  43.2812214   2.8132546  12.4404716  43.1349230   1.8724506
  11.6413486  43.9297915   2.8826848  75.4364777  60.2007151  40.3613853
  75.1054811  61.0547495  40.0833654  76.0868883  59.9685764  39.6985817
   6.5420097  50.4327154  22.3661780   6.7671812  49.5601034  22.6887870
   5.8209008  50.7170010  22.9277968  30.1308942  16.7728162  18.5533476
  29.8839426  16.8530917  19.4746518  31.0699463  16.5882695  18.5722923
 103.0759621  65.6978321  92.0698166 103.3296394  64.8150730  91.8003464
 103.2409000  65.7171869  93.0124950  96.2692070  68.7429428  53.1553936
  95.5534554  69.2481089  52.7697182  96.1366177  67.8526497  52.8297710
  92.5144958  50.3054667  70.8352995  92.9080677  51.1505795  70.6182098
  92.0090008  50.0697708  70.0573874  64.2996073   8.0881572   0.8341184
  64.8933458   8.2324338   0.0973049  63.4256029   8.1042719   0.4441378
 106.6128254  38.7315655  74.4308329 105.7004166  38.6736465  74.7143412
 106.6460133  39.5207596  73.8901854  36.0141397  85.1667404  16.4818144
  35.1927066  84.6937084  16.3486969  35.7808566  85.8942127  17.0585299
  28.6514568  74.1612434  21.3174987  28.3229995  73.6849546  20.5549383
  29.4416475  73.6861086  21.5745497   3.8870943  13.5756612  68.4420967
   3.5140103  13.9969337  67.6677799   4.8307630  13.7120318  68.3576918
  10.6349194  80.6854916   1.3686876  10.0038242  80.1138592   1.8059398
  11.2748861  80.8993340   2.0476146   0.2906561 106.0047913  14.4509304
   0.3526640 105.8887100  15.3990388   1.1056566 105.6357288  14.1106355
 103.5926437  61.8398619   0.7407043 104.1817093  62.1622419   1.4228311
 103.6799717  60.8874369   0.7793158  50.6474972 106.4808750  20.6017303
  49.8540068 106.0070229  20.3526044  50.5570316 107.3366070  20.1824808
 100.4175663  49.7834301  77.8638315 100.6038666  50.5535173  77.3267174
 101.1917591  49.6849871  78.4180546 100.5319214  87.3485851  30.3014541
 100.3227997  88.2586575  30.5118322 100.7514286  86.9521999  31.1446190
  27.9732895  63.6382008  10.9815896  28.0004454  64.1899061  11.7633295
  27.9815483  62.7428293  11.3199294  17.4575591  98.0852795  12.4862254
  18.1956470  97.8610229  13.0529439  16.8478549  97.3542213  12.5864792
  56.0660362   3.8563341  25.3905511  55.1468134   4.0993321  25.2800488
  56.0430813   3.0811900  25.9516716  44.1425419  99.2432976   8.7769628
  43.3359528  99.2568493   8.2617259  44.4545221 100.1480103   8.7573320
  25.7364726  33.9451170  14.7771668  24.8848891  34.2918396  15.0432909
  25.5304742  33.1323647  14.3154001  45.6678152  20.2027011  79.9743319
  45.1873827  20.4570460  79.1864729  46.5118885  20.6469059  79.8940134
  21.0960317  93.4400272  16.6217852  21.7006755  93.2793713  15.8973348
  20.9081364  92.5701714  16.9743228 102.5204659  91.2339497   0.6464657
 102.3835659  90.2989483   0.4939418 101.8556690  91.6641998   0.1087388
  89.4392776  39.8120332  87.9549026  89.5323181  39.5427656  87.0410824
  88.4942818  39.8871589  88.0874443  28.4538841  51.0386658  48.4617615
  29.1408300  50.9266853  47.8046465  28.4981132  51.9649363  48.6990404
   5.4000545  53.9047813  86.4676571   5.7962185  54.6674633  86.0462189
   5.2957416  54.1642141  87.3830986  72.5148153  31.9325733  81.0495853
  72.2731066  31.6922331  80.1551342  71.7091560  32.2831035  81.4294243
  65.6731176  23.1038141  35.8996606  65.9796953  22.1980715  35.9428787
  66.3461304  23.6066270  36.3584304   5.6615257 103.6696911  24.9453950
   4.7324458 103.8887691  25.0164533   5.9856743 104.2273045  24.2381239
  91.4183998   2.1054783   1.3043337  91.7342854   2.8286535   1.8460567
  91.4692497   1.3387223   1.8750627 102.0654488  14.0077507   8.0733657
 101.6570759  13.1486440   7.9666132 101.7103958  14.3409848   8.8974535
   3.5304394  30.0594854  62.7513170   3.4817261  29.1154361  62.9017591
   3.8869509  30.1430035  61.8669224  30.8190703 104.0245247  36.4013958
  30.4700089 104.6365643  37.0493102  30.0744796 103.8265800  35.8333898
 112.0171356  41.6368103  83.9439201 112.6548100  42.1436071  83.4411621
 112.3686790  41.6252422  84.8341560  20.0358582  45.6052303  58.8814974
  19.4207239  45.3598404  58.1903982  19.5300007  46.1745596  59.4613314
  52.9847765  15.3004873   6.0598648  53.2293272  14.4095933   6.3103312
  52.3456573  15.1847124   5.3567600  70.8673096  22.7596784  76.3676691
  70.1434755  23.3847332  76.4076996  71.5324259  23.1971598  75.8362007
  24.7409177  87.6817608   3.6339453  25.4307508  87.2791672   4.1614640
  24.2721772  86.9419479   3.2476896  38.7570739  23.8059258  80.4288006
  38.3229065  22.9926801  80.1711845  38.9742327  24.2341971  79.6007538
  73.1562281  45.9450483  76.8817329  72.3340845  46.3942957  77.0779181
  73.7806606  46.6508150  76.7137766  46.6407156  75.5207682   9.5647889
  47.4964333  75.3662920   9.9649280  46.0587454  75.6963396  10.3041935
  81.0592937  -0.1862524   4.4382721  81.2479973   0.6677642   4.8272172
  80.9687233  -0.0083391   3.5021228  53.8526297   1.5388890   9.1194475
  54.2492342   1.6235104   9.9864966  52.9101086   1.5362258   9.2864221
   1.8823221  76.1240530  86.1008263   1.6043146  76.4496231  85.2447033
   1.3563219  76.6201448  86.7280769  46.1906433 107.1798038   7.7118266
  46.4381695 107.4735069   8.5885829  47.0239305 107.0279312   7.2659630
  44.8114109  14.4667041   4.0578079  44.3592930  13.6384749   3.8970056
  44.1833925  14.9895656   4.5562488  19.0165484  51.9622946  82.3324203
  19.5512462  51.2784624  81.9290543  18.1368351  51.8144274  81.9853306
  26.0205793  49.0129519  69.3456173  26.9305158  49.0360641  69.0494537
  25.8034492  49.9279737  69.5240116 102.9222488  24.4657183  69.9265575
 102.9060268  23.6184216  70.3715944 102.0143318  24.7677088  69.9532652
  21.2542129 103.6683750  26.3070393  21.0176206 103.7262630  27.2327304
  20.9728479 102.7926254  26.0422230 107.0863724  52.3470402  51.0489225
 107.6861572  51.7016172  50.6748629 106.7018318  52.7849770  50.2895975
   6.2762487  55.5835724  91.7600346   6.4021236  55.4984331  90.8149719
   6.8734771  56.2853670  92.0189381 108.1172943  56.3638115  79.5705080
 107.9190350  55.8225822  78.8063145 107.7517319  57.2223759  79.3572855
 108.6225891  33.7794256  74.9299717 108.7535000  33.0851102  75.5757427
 107.6996708  33.7088037  74.6861172   9.1751850  57.1878195  70.7076359
   8.4276497  56.6223049  70.9015846   9.9209774  56.7469883  71.1146879
  15.1283658  39.7085857  82.8018665  15.6010020  39.3257403  82.0627594
  15.6933820  39.5464993  83.5573292  70.0424719  59.4164944   4.9380168
  69.6631289  60.1162958   4.4064102  69.2866325  58.9577007   5.3046829
 106.1072350  98.7902832  20.8531523 106.2678337  99.7209835  20.6974769
 106.9763374  98.3899117  20.8288455 106.1028862  18.2677794  90.0033855
 106.3082504  18.4096217  90.9274673 105.1964760  17.9601049  90.0039482
  26.6808581  88.7766743  42.8199196  26.0286379  88.7307358  43.5190105
  26.9338441  89.6993065  42.7886343  42.7096891  18.7730420  22.8819776
  41.7823219  18.6897278  23.1039619  42.7123833  19.0726423  21.9728780
  21.9203281  97.5432587  22.6417232  22.3651814  98.3787155  22.4990916
  21.5548301  97.3174286  21.7863607 105.9433270  70.8951092  80.9718704
 106.4214706  71.0976839  80.1677704 105.4503536  71.6926050  81.1647606
  86.5014648  57.3820734  91.0523701  85.6731987  57.2333479  90.5962086
  86.8034554  58.2311773  90.7297707  64.2106915  13.4048843   4.7244266
  63.6607409  13.0817246   5.4381162  63.5932446  13.6238170   4.0265334
   0.7855280  90.7298088  83.6302662   1.1078773  90.9321785  82.7519894
   0.2689415  91.4965057  83.8783550   9.6278638  42.4422979  91.8063068
   9.7493565  43.2727909  92.2664738   9.6474373  41.7804003  92.4974918
  38.6593795   0.1965849   3.5213175  37.9024768   0.4286747   4.0593338
  38.3235264   0.1912856   2.6249880  75.3682804  12.6921725   6.9288135
  75.0320864  11.7959559   6.9301701  74.8725939  13.1349695   7.6176220
  70.9326744  22.1812510   9.7953290  70.8280897  21.3043666  10.1646101
  71.6785955  22.5522470  10.2667081  94.8893452  47.4820185  84.4409943
  94.8274708  48.1001139  83.7127304  95.1687527  46.6612339  84.0354347
 109.3693924  10.5323493  88.5374069 108.6713982  11.1851287  88.4834003
 108.9827728   9.8085093  89.0301704   1.1198533 100.8781719   2.5505236
   0.9693668 101.0179996   1.6156250   0.5264408 100.1644993   2.7845314
  85.8298016  38.7636137  81.4588165  85.7569790  39.7180319  81.4548969
  86.2190151  38.5496187  80.6109047  50.7113934  97.9732513  32.4631357
  50.6820726  98.5611820  31.7083430  51.6165686  98.0229568  32.7704215
  17.4699545  16.0077000  68.0325794  16.6216493  15.7037377  67.7097511
  17.4224305  15.8872986  68.9809847  64.4298077  92.3666859  54.8053503
  65.1294184  92.1612167  55.4254770  64.8421144  92.2895718  53.9449453
 108.0125523  48.7683868  89.6285725 108.3032990  48.6856842  88.7203503
 107.1328926  48.3910227  89.6337605  58.8869858   5.4562372  19.9696469
  59.1977644   4.8283765  20.6219029  59.5821285   5.4824096  19.3121362
  94.6327877  55.4160881  89.9901009  95.2986526  54.7475386  89.8291779
  93.9047718  54.9382687  90.3874779   7.2507787  35.1625371  56.7945671
   6.6639817  35.5942488  56.1736584   6.7522871  35.1281452  57.6109934
  14.4716930  94.0329742  31.7949581  14.7744060  93.6683464  30.9633064
  15.1651609  94.6382141  32.0576811  92.1152210  31.9626212  77.1772528
  92.4650574  31.6009521  77.9915285  91.5464878  31.2734795  76.8339539
  78.9616680   1.3362512  21.8037200  79.7845030   1.2901358  21.3168406
  78.8908625   2.2534990  22.0680571  72.1207523  17.5886190  12.1020460
  72.9019690  17.5484347  11.5504003  71.4135933  17.2735023  11.5391433
  70.4303074  48.6264324  88.8554192  70.4175615  47.6838350  89.0214920
  70.0291300  49.0122843  89.6341419  84.1816044  53.6623907  54.7892570
  83.6967278  53.5757971  55.6100035  85.0741577  53.3954287  55.0090551
  99.6082115  58.2110643  69.9570847 100.3143120  57.7437162  70.4034472
  99.0358448  57.5195217  69.6248245 104.4116497  19.2822504  58.9709663
 105.0083447  20.0271463  59.0438414 104.4674492  18.8465655  59.8214340
  50.6750250  97.4613571  13.7893653  51.4340973  97.4458885  13.2064450
  50.4223824  98.3837605  13.8291872  20.0812149  24.8812366  61.2778282
  19.6811807  25.3565288  62.0060444  19.4800198  24.1565418  61.1057425
  11.6333222  97.6557446  10.5286348  11.7538238  96.7329311  10.3047442
  12.0142198  98.1327915   9.7913611  53.3104420  78.2548380  13.3168888
  53.1136942  79.1523027  13.0484235  52.5307131  77.7557087  13.0737388
  83.5267735  22.6860309  87.5211430  83.3588886  21.7706800  87.2971344
  82.6611328  23.0945468  87.5240517  95.6165218  60.3447437  91.7240906
  95.6091118  59.4449329  91.3977242  94.6930408  60.5939531  91.7604351
  70.7837439  80.1259613   7.8981042  71.4101410  80.8491802   7.9266351
  70.3778553  80.1946068   7.0339417  13.4265816  85.4122639  17.5680494
  13.3987355  85.1718140  18.4941375  13.8185084  84.6537209  17.1353281
 105.4785538  47.6727915  81.9766140 104.7368336  48.2349443  81.7528725
 105.4471397  47.6032782  82.9307747  53.4535360  91.8143082   2.1533455
  52.8377819  92.3542023   2.6489210  54.3008757  92.2418118   2.2778180
  18.9848220 106.3216877   8.5185480  19.5717001 105.5739307   8.6311138
  18.2456934 105.9731483   8.0201119  56.5545225  84.9356270  69.6845293
  57.3160458  84.5008469  70.0683022  55.8027363  84.5098400  70.0965309
   2.0452109  33.9116955   5.8008653   2.5046286  34.1376781   4.9921018
   2.2397000  34.6349740   6.3969123  90.5945969  26.1026430  88.4887600
  90.7940578  26.7246366  87.7890587  89.7690105  25.6984663  88.2217789
  36.4383650  57.7489519  30.4990911  35.6544518  58.0043554  30.0128007
  36.8544245  57.0839357  29.9505687 112.9647923  52.6225519  73.8360500
 113.6540699  52.2528124  74.3877935 112.4294853  51.8698359  73.5848522
  88.9737606  15.7308841  26.5123439  89.8914337  15.9264660  26.3229728
  88.5817528  15.5674040  25.6545353 102.7688599  31.9196987  64.4020271
 102.0857430  31.2593722  64.5184374 103.4764099  31.4559698  63.9541864
  32.8290296  90.9675312  68.2007170  33.3803940  90.1942730  68.0811310
  33.4380460  91.6576195  68.4636164  99.4928360  38.7070131  54.9638367
 100.1707935  38.0470824  55.1091003  99.0334702  38.7668824  55.8014774
 102.8014755  19.1768074  80.0940323 103.3145905  19.5307159  79.3676043
 102.0521832  18.7540662  79.6744061   7.7712655  57.9806852   1.7287929
   8.7111771  58.1152010   1.8500510   7.5895959  57.1498203   2.1679944
  90.3761673  43.4803343  54.8424482  90.1311588  44.1181707  55.5127907
  90.8944416  43.9816189  54.2128944  95.5211830  53.4753275  82.7211952
  94.6977901  53.2051611  82.3146629  95.8302689  54.1999817  82.1775246
  25.6733584  55.5091238   3.2914317  24.7554684  55.5936241   3.0334198
  25.9012294  54.6053839   3.0733567  90.8890152  34.2419171  71.9071627
  90.9005642  33.7593365  72.7337313  90.9529114  35.1613259  72.1656895
  96.7101192  19.3859148  63.5579872  97.5975037  19.5946968  63.8498497
  96.1639404  20.0713849  63.9427614 105.1610184  10.3746927  69.9581575
 105.5640316  11.0437310  70.5115128 105.8672810   9.7535050  69.7805214
  80.4402256  21.7499399  78.8110781  79.7446012  22.4058414  78.8572979
  80.8144188  21.8588686  77.9368114  99.7692966  88.8870907  54.2059708
  99.4664001  89.4796944  54.8939466  99.2186928  89.0951252  53.4511280
  30.8011317 106.4535904  53.5496759  31.1093712 107.3509026  53.6763287
  31.3627529 106.1027241  52.8585148  36.5449476  25.1919198   8.6964202
  37.4400043  25.2376890   9.0325916  36.4113832  24.2654729   8.4961993
  92.4751186  96.2492943  82.9005432  92.9536819  96.6350651  83.6342907
  93.0120373  95.5046940  82.6293850  15.8595526  28.4898758  77.4475861
  16.1350036  29.0623188  76.7315817  14.9094307  28.5984254  77.4890518
  23.4407425  93.3018589   0.3491848  23.0087996  93.4923840   1.1818654
  24.3253112  93.0307961   0.5947370  32.5920677  39.3689251   3.4950793
  31.8559241  38.8628912   3.1511965  32.4668717  40.2476358   3.1367201
  18.5908294  44.1108370  73.9772224  17.8228509  43.5873747  74.2061901
  18.3928800  44.9855518  74.3117619  96.4222050  41.9229078  69.7607613
  96.7809105  41.6995049  68.9018965  95.6357098  41.3830614  69.8396397
  92.3370838  35.6871367  82.4194717  92.3500347  35.1378489  81.6356659
  93.1170750  35.4250646  82.9085159  37.9226565 101.3983154  75.4499292
  37.8721571 100.5213547  75.8302116  38.7330246 101.7659950  75.8025646
  25.1005912  66.3149643   6.1585945  25.2749944  65.3946352   5.9615850
  25.7094240  66.5280581   6.8658042 104.9802399  71.2563562   2.6997599
 105.7823753  71.4444542   3.1870347 105.1398182  70.4033518   2.2958431
 101.1354637  34.9143147  70.6929541 100.8901691  35.3563952  69.8801613
 101.7627811  35.5064583  71.1077690  18.9410377   5.9025794  87.3355675
  18.1734061   6.3428062  87.7005005  18.5950613   5.3756261  86.6152477
 103.5876179  10.1937985  80.6653881 103.2049942   9.3816668  80.9974575
 103.1543350  10.3361058  79.8238087  94.3542671  37.0456600  64.5709515
  95.3004551  37.1547747  64.6661139  94.2444038  36.1345649  64.2987967
  87.3669434   2.7672896  73.3022022  86.8940544   2.3454830  74.0196133
  86.6809654   3.1522837  72.7568197  12.9485595  54.0107632  76.7865324
  13.5915720  54.3564129  76.1674261  12.6210582  53.2129383  76.3712645
   3.1786498  57.6045609  31.2802935   3.3187065  58.0776882  30.4600692
   3.6925337  56.8026400  31.1849833 106.6002178  36.0390496  43.3037901
 107.3345375  35.6534410  42.8259611 106.5260983  35.5090404  44.0974045
  74.3538618  12.2923017  79.9017477  75.0050735  11.6516054  80.1875114
  74.3943167  12.2648895  78.9457989  99.3521976  34.1940188  27.9081202
  98.9824772  34.9875379  27.5209904  99.7497749  34.4898653  28.7270451
  44.4986820  98.9633369  19.0664864  44.1218567  98.0949116  18.9248276
  44.3660402  99.1327477  19.9991906   5.3414178  13.9314091  75.5649042
   5.1885551  14.7028840  75.0192928   5.1362354  13.1903863  74.9947977
  76.9192362  78.9972115  67.8631306  76.8361902  79.9488163  67.8015900
  76.9488192  78.8196754  68.8032579  82.1654224  19.7274578  79.0476513
  81.4595795  20.3665543  78.9497709  82.4921417  19.8657250  79.9366760
  52.9582119 104.7631359  62.5945234  52.1543884 105.2777100  62.6674509
  52.8757429 104.0926743  63.2726908  78.0327749  24.8515964  82.9951572
  77.8356314  25.6689739  82.5376987  78.6117125  25.1117468  83.7116623
  51.9656420  98.1924915  70.8987951  52.1934319  97.2644806  70.9547424
  51.3711596  98.2485199  70.1506758   3.2957089  15.1638794  42.4404240
   3.9688623  15.7757068  42.1424961   2.4999768  15.4445851  41.9884920
  68.6446953 104.8622417  71.5982389  68.0531740 105.6023026  71.4616919
  68.5376072 104.3223572  70.8151102  35.5411744 102.0658970  93.0820751
  35.8933902 101.4896679  92.4037457  34.7435856 102.4292278  92.6972771
  87.2982597   6.6834623  35.0634193  87.9204559   6.3417983  35.7055855
  87.7723789   6.6558403  34.2323470  89.2225552  39.1932178  74.1979265
  89.7224045  39.0247869  74.9966812  89.8860455  39.3959808  73.5384560
 106.8432903   5.3309524  78.6507559 106.8348598   6.0841215  79.2414331
 106.5905571   5.6905842  77.8004503  76.8853617  33.0658412  51.5334702
  77.5634527  32.8311920  50.8999395  76.2235641  33.5254788  51.0167646
 101.1240482  28.7389946  81.6800594 101.1285114  29.6752882  81.8789768
 100.1975822  28.4983659  81.6809654  73.3866358  63.2841158  89.3894482
  74.1336727  63.0854368  89.9539757  73.6237717  62.9138422  88.5392189
  72.1350670 106.9617462  63.4182549  71.3300991 106.7002678  63.8653374
  72.8344011 106.5415001  63.9188099  69.3911600  24.6356082  50.1615238
  69.9640417  24.3197560  49.4627571  68.5458326  24.7736168  49.7342014
 104.0764523  28.7425637  67.4387407 103.8615990  27.8100467  67.4167728
 103.2273006  29.1842604  67.4302483  92.2101593 102.1562195  22.0291996
  92.1102715 101.4943600  22.7134514  91.4224434 102.0669079  21.4927697
 103.4510040  85.7032681  10.3275073 103.2339287  85.3408527  11.1864412
 104.3394184  86.0447407  10.4291999  31.1728263  79.9839306   2.6844779
  30.7172227  80.7470894   3.0397952  30.6761146  79.7523689   1.8996932
  31.4484429 100.4170799  10.3137517  31.6796136 101.2203884   9.8473990
  31.6612411  99.7140980   9.6999335  96.5025425  24.1699028  84.5846462
  97.2213554  23.8111424  85.1050568  95.8324051  24.3998933  85.2282715
   2.5601298   2.6460588  78.5417557   3.2998121   2.4617872  77.9628372
   1.7886178   2.5443253  77.9843903  28.3869338  46.7339659   0.0399538
  27.6617241  47.0408869   0.5841065  29.1592813  47.1667004   0.4038920
 111.7924309  13.1950164  45.8924103 111.4560795  14.0846479  45.7844543
 112.7413559  13.2855153  45.8053255 112.2475910  20.5200529  38.0461884
 112.3697090  19.7956181  38.6597967 111.7779541  21.1844468  38.5504198
  17.7107108  97.3792076  30.0900674  17.1908689  97.0492649  29.3571734
  17.1178246  97.3410892  30.8405781  30.4163766   5.4319119  11.3320315
  29.6513438   5.1599926  11.8390000  30.9568119   4.6440980  11.2727952
  49.1791296  74.4201422  23.7051177  48.2896948  74.0726805  23.7714458
  49.2213154  74.8048449  22.8296423 111.8938160   5.8851898  79.1101313
 111.8033314   5.2408814  78.4080505 111.4292717   5.4978508  79.8520136
   9.6300280  47.0435619  86.9848156  10.3357959  46.3975191  87.0121861
   9.5657808  47.3663330  87.8836536  95.3929138  26.8656182  75.2131081
  96.1537647  26.5448451  75.6972980  94.6753788  26.2955022  75.4894352
   8.0354780  28.6862779  86.1270428   7.7930683  28.1446862  85.3759480
   7.6546103  28.2351661  86.8804836   3.5253495  23.0776882  65.9916258
   4.2846298  23.4605002  65.5521059   2.8382185  23.7379289  65.9012651
 113.0903721  43.2221222  80.8194828 113.5714817  43.4636402  80.0280094
 112.2594452  42.8727102  80.4974365  37.6451349  88.5515785  23.4632874
  37.3101997  89.4300842  23.6429691  36.8607807  88.0143070  23.3521366
  95.0763321  20.5212855  86.4018631  94.8982906  20.2134705  85.5131626
  95.9807110  20.8332944  86.3705826  87.4367428   9.1829997  88.7646103
  86.6687202   9.4027537  88.2372856  87.5463676   9.9311805  89.3515015
 100.5434132  63.1566668  84.2638969 101.3571835  62.7423143  83.9769745
 100.0927448  63.3873749  83.4515572   4.7084641  12.7786446  60.0332642
   5.0094241  11.9411922  60.3858662   3.8472360  12.5866795  59.6622324
   4.6868938  19.3647230  60.4751444   4.7962856  19.6771038  61.3733006
   4.9982047  20.0877023  59.9305153   3.5552669  17.3633277  86.8090439
   3.8968506  18.2338405  86.6046906   4.1276091  17.0385575  87.5041485
  25.8038259  16.9068372   8.2179612  25.4478931  16.2124908   8.7724233
  26.6628480  17.0975316   8.5947222  61.6260815 101.7097473  24.5970106
  62.0124865 102.1321106  25.3641653  60.7253647 101.5174484  24.8577094
  99.3956757  31.8388081  78.3619118  98.5628414  32.2831917  78.2033730
 100.0608158  32.4919629  78.1446505  43.2214212  79.5248556   7.9653984
  42.3947525  79.1490030   8.2680327  43.3921385  80.2465916   8.5705245
 101.3508511  10.2235031  77.7558136 101.0080338  10.5994630  76.9450331
 100.7840538   9.4720274  77.9297733  56.5902710  90.4986382   0.6737328
  56.6817713  90.0694180   1.5243950  56.3072109  91.3885880   0.8837204
  77.5752831  23.1617522  86.0666656  77.2899723  23.7921238  85.4052639
  78.0015993  23.6949849  86.7376041  91.1350250  27.5047398  85.9571457
  92.0224571  27.7453423  86.2232304  91.1513138  27.5490880  85.0011063
  54.2783451  69.7285700  20.0518608  54.1847801  70.5545092  19.5772004
  53.8070011  69.8694849  20.8729649  71.5896368  97.1841335  78.5743284
  71.3145304  97.0163345  79.4756556  71.9300699  96.3438034  78.2674360
 110.5977535  16.6500449  89.7371006 109.7453785  16.5862870  90.1679420
 110.5160713  16.0953593  88.9612961  25.7184315  94.6469688   4.9971035
  24.8135495  94.9538136   4.9399188  26.2466478  95.4390526   4.8979619
  82.9265976  57.6648569  82.9955006  83.0313301  57.0849895  83.7498379
  83.7660885  57.6168871  82.5381374  36.3754249  80.1649761   2.7213258
  35.4929066  79.8722649   2.4939169  36.7898202  80.3530502   1.8792230
  62.6544952   1.7829533   2.3618716  62.6963377   2.0295209   1.4379206
  63.5586834   1.8498248   2.6687980   8.0842209  84.7928524   1.1010991
   7.9722667  84.0083790   1.6380420   8.2168585  84.4589138   0.2138989
  12.5732899  52.7780199  63.4582138  13.0148232  52.5456715  64.2750931
  13.2757080  53.0859423  62.8854799  53.0039120  85.5797100  83.5534191
  52.9655170  86.0428905  84.3902111  53.7848949  85.9273911  83.1228256
  80.3518867 106.6219521  39.7505355  80.8582973 107.4173450  39.5858240
  80.3558064 106.5284920  40.7031536  93.2076550  53.5378122  91.2597752
  93.9981174  53.6036062  91.7955685  92.5957012  53.0342245  91.7965603
  13.2600331  66.6296721   2.4411000  13.2804632  66.6795588   1.4854193
  12.3465884  66.4356327   2.6513359  50.0441170  58.6079693  89.8151207
  50.9152460  58.7239933  90.1944733  49.6860361  57.8437662  90.2667999
  97.9363728  54.4068813  58.7274933  98.0439568  53.4562016  58.7568426
  97.5951958  54.5823574  57.8505468 111.2935734  24.6234989  76.4841890
 111.2547684  23.9657688  75.7898378 112.2179031  24.8676562  76.5314388
   7.4437886  73.2134104   5.0140059   7.6959097  72.3249197   5.2654982
   6.9405371  73.5397863   5.7599604  84.1719532  68.6603212  86.8823433
  84.5333767  68.9183187  86.0343742  83.4006786  69.2162752  86.9931316
  11.5049481 102.3274136   8.5166746  11.1930883 103.1778336   8.8261122
  12.2121298 102.0978069   9.1195095  91.0344410  36.0791254  67.1028471
  91.4623928  36.9098377  67.3102140  91.4365864  35.8014250  66.2798071
  17.1759057   8.8170904  43.0835676  16.9951642   8.6937517  44.0154219
  16.6187859   9.5518601  42.8267336  36.3248873  91.1448956   2.7923635
  36.6296506  91.6182804   2.0182429  37.1189189  90.9819317   3.3014682
  83.4880924  13.6157119  74.8203659  84.4016457  13.8974190  74.8682308
  83.0608177  14.2794812  74.2789984  34.5595231 107.3117907  68.0880976
  34.5928874 106.7870412  67.2882462  35.2139869 106.9145458  68.6626434
  86.8046570  94.8245907  67.0622158  87.2993183  95.6440067  67.0724058
  85.8884335  95.0972939  67.1111870  94.9575043   6.3427627  83.2652569
  95.2256107   5.5366445  83.7063026  94.0332508   6.2059629  83.0572414
  36.4263153  96.9438934  15.1200366  37.1732306  96.8937588  14.5235193
  35.7571745  97.4182892  14.6266472 109.2317867  13.2656312  90.8928871
 108.7120914  13.6676049  91.5889931 108.6435127  13.2416606  90.1381779
 101.5438938  47.1240568  73.6222982 101.6529942  48.0624914  73.7761545
 102.0891285  46.7069960  74.2893839  39.6776915  93.6691952   4.5214072
  40.1902151  92.8638268   4.4511792  38.9529157  93.4418392   5.1038498
  84.1239738  26.0826373  84.9990654  84.6069050  25.6760383  85.7185745
  84.6817780  26.8069220  84.7153378  30.6603932  50.5380058  69.9473238
  29.8815012  51.0720778  69.7913551  30.3436184  49.7980261  70.4653168
 100.3755569  36.0232949  58.5601759 100.7157898  36.4362955  57.7665138
 101.1051178  36.0562515  59.1789484  97.0916367  96.8204975  18.6827850
  97.7161121  97.3729610  18.2126355  97.5534725  95.9918022  18.8100624
  14.6308637  85.2371788  93.1154442  15.1528132  85.5961704  92.3978615
  13.7377667  85.2106857  92.7720737  89.9516582  13.9520061  85.4409027
  89.6565533  13.0438209  85.3749847  90.8262539  13.9484859  85.0519371
 112.7722359   6.6705996  72.4977970 112.4928570   5.7656169  72.3592710
 112.5216770   6.8629676  73.4013748 106.5192604  24.9367094  77.4045897
 106.2752247  25.6066728  76.7659760 105.8807278  25.0351524  78.1108618
  34.7843313  23.4435320  32.2585845  35.7094288  23.6090541  32.0768428
  34.7096848  23.5200763  33.2097960  44.7799253  14.2312133  68.7886953
  44.0283203  14.5839131  68.3123350  45.2385235  13.6902237  68.1458473
 112.4398804  33.0156493   1.7188931 112.9629135  33.8172746   1.7108740
 112.9302788  32.4153066   2.2804360 106.5572071   5.3116333  13.4443080
 107.2866249   5.3261274  12.8246570 106.6764069   4.4988257  13.9355993
 103.1300545  34.0176177  32.8279066 102.2064018  34.1708231  33.0269837
 103.1454468  33.8347054  31.8884706  98.5267258  78.3606482  26.7569208
  97.9264736  77.9414701  27.3735452  98.7868309  79.1732788  27.1907473
   5.9233600   2.2000715  13.7638533   6.3533366   2.7335683  14.4322348
   5.0220621   2.1092798  14.0731287   6.3607126  24.4951248  33.9271498
   6.0611421  23.5916543  34.0282965   7.2914696  24.4650507  34.1485500
  26.7671990  36.3752699  26.0548949  27.0930028  35.5605745  26.4374542
  27.5568986  36.8728662  25.8427501  22.3202896   4.9960589   3.9236057
  22.9126239   4.7375408   3.2175308  21.5210199   5.2737916   3.4760994
  80.2612305  94.2490101   0.3782623  80.1628971  93.3380222   0.1013888
  80.4807186  94.1943073   1.3083507 104.6327877  18.7908816   6.6108775
 105.1494122  18.0642867   6.2624735 103.9971828  18.9848256   5.9219438
   4.9178836  90.0665379  55.7067680   5.6493759  89.5261002  55.4083157
   5.2413648  90.9650040  55.6408119   8.1581014  92.9953480  13.5415101
   7.9348606  92.8290749  14.4573426   7.3503798  92.8132629  13.0612350
 101.3761044  72.2644758  16.1569011 102.1487331  72.2373962  16.7213011
 101.0850430  71.3540554  16.1054611  19.2405796   3.8781354   6.7598766
  20.1273370   3.8926929   6.3997626  19.3600595   4.0324926   7.6969624
  24.0554094  25.7057691  31.5006018  23.4705305  25.6903243  32.2581697
  24.1971564  24.7831655  31.2886024  13.9237714 105.6627178  45.6546736
  13.3134913 105.4854774  44.9388695  13.7370598 104.9831486  46.3024092
  24.3170977   5.5409169  18.1220555  24.5275712   4.6084443  18.1713235
  24.6459031   5.8157742  17.2661507  96.8741894 104.9328423   4.5324835
  96.9672966 105.8309650   4.8501980  97.0303154 104.9947453   3.5901329
  77.8598404  99.7047806  34.7598958  77.9272032 100.6507683  34.6302724
  78.5040569  99.5098019  35.4404807  58.0077648  55.1361179  11.8927979
  57.4922991  54.3712234  11.6369247  57.7037859  55.8345938  11.3131762
   2.0705134 104.4598293  41.4978838   1.1511760 104.2629719  41.3181686
   2.0445392 105.0823689  42.2245216  43.6392593  83.3425236  82.8141689
  43.9204168  82.4541759  82.5950336  44.3777323  83.7155724  83.2955551
  27.5163651  13.5432625  13.0295384  27.3234797  14.3502176  13.5068774
  27.2726941  13.7364197  12.1242499  33.5694408  15.1514447  45.2598953
  33.7455869  16.0887575  45.1783419  33.3527660  15.0279796  46.1840391
 104.3462658  82.5397968  63.1394815 103.6318111  83.1565475  62.9800510
 104.9483585  82.6764679  62.4080181  15.7932782  16.2881958  16.5654433
  14.9421048  16.6247499  16.8455625  15.5857718  15.6513143  15.8816636
  21.9700384  31.1776710  52.1863604  22.1669888  31.7421556  51.4388275
  22.1411633  31.7259002  52.9521227 110.3454685  30.3624701  33.1413007
 110.9903145  29.6554518  33.1184626 109.5714569  29.9678016  33.5430098
 110.6442070  99.1205978  44.0120363 110.1649761  98.8845158  43.2177925
 111.5362549  98.8113785  43.8543558  87.7207661  60.2064133  49.3551064
  88.1083012  59.3729162  49.0880251  87.7960300  60.7644939  48.5810804
 111.7036438  99.0991402  38.3630204 112.5159264  98.8450813  37.9249668
 111.3660908  98.2836151  38.7334299  50.1883030   4.5884299  36.3170958
  50.6104708   4.1470078  35.5801058  49.3173599   4.8170003  35.9923744
  27.6467180  17.1422541  17.4695837  27.3508382  16.3609290  17.9367220
  28.5891628  17.1767366  17.6334178  34.9398518  19.7190607  68.7470579
  35.1145601  20.6561041  68.8345575  35.0582218  19.5394206  67.8143501
   1.8811959 105.8881950  35.5840421   1.0924843 106.3094902  35.2424622
   1.5538104 105.2122211  36.1774302  42.4176264   0.6898680  24.2709374
  41.6638565   1.2243889  24.5206475  42.1012640   0.1549327  23.5429335
  61.2022209 102.6904678  39.8544097  62.1013308 102.5092030  39.5805955
  61.2373447 102.6845741  40.8109474  95.6052017  14.8465037  33.3936429
  96.1753654  14.1064763  33.1850672  94.9180412  14.4716001  33.9445424
 106.0896587  81.9600677  17.1418130 106.5694141  82.6028252  16.6193807
 105.1920128  82.0058250  16.8126309  28.4830356   3.5239026  33.7483501
  27.5988364   3.8555133  33.9047432  28.5637403   2.7713630  34.3343568
  16.5711141  13.9234030  27.4325752  16.3618934  14.7604239  27.0180225
  16.9408524  14.1628170  28.2824016 100.1531601  28.0852675  14.3547142
  99.6356869  27.5519800  13.7513435 100.6825924  27.4524331  14.8399460
  80.2448273  71.9228697  79.8805428  79.5095396  71.5873194  79.3677187
  80.9843636  71.3695240  79.6293116  89.3327999  28.4148622  15.1951337
  89.8068047  27.6121521  15.4124069  88.9265728  28.6836267  16.0191333
  65.7946205  83.4238720  52.7055073  65.4972506  83.5684109  53.6037922
  65.7262278  84.2831707  52.2893858 112.6373672  41.2888765  14.6306169
 112.6475525  40.9350348  15.5199552 113.2323551  40.7215834  14.1403067
  83.2045746  96.7024899  24.5579195  82.2778797  96.9045544  24.4289207
  83.3061790  96.6401768  25.5076694   3.5990918  87.4380493  50.5774117
   4.5306626  87.5668716  50.7557726   3.3834389  86.6138077  51.0136938
  14.0964997  21.5195346  50.2448225  13.4175324  22.0027423  49.7739220
  13.6131930  20.9359074  50.8296537  12.3241103   1.1374411   3.3725405
  11.4058793   1.4070934   3.3918276  12.3293912   0.2754496   3.7886831
 113.0727577   2.5943846  40.5546904 113.6678219   1.9645551  40.9614325
 112.7413177   2.1436659  39.7780108  80.6958771 104.1849232  46.0247183
  80.1068783 103.9512920  46.7421627  81.4206696 104.6436214  46.4495754
  46.9689941  11.9154918  25.9563565  47.7967358  12.2533989  26.2982535
  46.3030481  12.4967873  26.3235641  95.2802277  91.6193676  26.6732454
  95.3679848  90.6937313  26.9006729  94.5300102  91.9216824  27.1851206
 105.5740070  81.9846249  43.3955622 105.1455975  82.2665691  44.2037678
 105.4183674  81.0408783  43.3586264  83.6912441 101.0775566  64.1782045
  83.7429905 101.9402981  64.5895815  83.1930923 100.5457401  64.7988844
  80.1404190  98.8126659  13.5785246  79.6544600  98.6431122  14.3855751
  79.5862246  98.4539604  12.8853917  34.5414129 106.9160130  76.2980986
  34.4113269 106.3560116  75.5327797  35.1448646 107.5956404  75.9977865
  97.4067020  73.5298347   4.8667544  96.8254566  73.2551003   4.1575915
  97.1313381  73.0056190   5.6188190  76.6422319 106.5501499  32.1849465
  76.5873623 106.3579941  33.1210542  76.8660355 105.7116985  31.7810440
   8.4552586  84.7552299  18.3662605   9.1495800  84.8146248  17.7100432
   8.6992425  85.3982735  19.0319872  59.3352175  92.1557140  22.6589894
  59.5071220  92.4057102  23.5668349  59.4108009  92.9733086  22.1670008
  33.3583832   0.3601151  48.0789995  34.1268158   0.8362986  47.7643681
  33.2007265   0.7119599  48.9551163 101.4654827  24.3876123  44.5967674
 101.0887718  25.1939058  44.9492073 101.0649490  23.6896062  45.1150274
  95.3564453   5.5906343  40.3884697  95.8758259   6.3940895  40.4190683
  95.6981754   5.1131737  39.6325064  29.7473502  48.1650686  18.3555460
  30.2512050  48.8806534  18.7432337  29.0849686  47.9545164  19.0136850
  84.0635109  68.3810949  62.2861528  84.0235233  69.0908861  61.6451883
  84.3043518  68.8121605  63.1061602 103.1921482 103.6397743  47.7471304
 102.9032230 102.7476025  47.9389429 103.2932472 104.0487862  48.6066198
   6.2014723  13.7275565   3.1874472   6.1768639  12.7809870   3.3275646
   5.3708094  14.0439272   3.5426110  13.0175495  29.2728281  49.3457031
  12.1969366  29.4954371  48.9060783  12.9063439  29.5976019  50.2392292
 112.7248287  83.0418301   0.1830940 112.5659084  82.3391533   0.8133571
 113.6130142  83.3413029   0.3771763  92.9150772  67.8779888  36.6159487
  92.7040482  67.3105001  35.8745623  93.2187939  67.2785282  37.2975874
  48.4015703  15.3465927  14.5885754  48.2963657  15.1197493  13.6646140
  49.3137741  15.1333678  14.7851861 102.5895023  88.4256458  54.1595745
 101.6658020  88.6513519  54.2694616 102.6980877  87.6134205  54.6542692
  27.6213908  13.4311438  44.8567820  28.4236503  13.7358642  45.2807617
  27.6817346  12.4763608  44.8880816  81.8731308  73.6410666  23.6975646
  82.6399708  73.7968111  23.1462669  82.0244789  72.7766180  24.0797305
  77.3599577 103.7784290  31.1410928  78.1497145 103.8146019  30.6014585
  76.9393301 102.9545307  30.8951187  32.4975777  28.6394930  29.7435498
  32.2619152  27.8837657  30.2816653  33.2157636  28.3270597  29.1932511
  72.8978491  97.8557301  14.5368373  72.1525145  98.4204960  14.7411644
  72.6009130  97.3254585  13.7973261  20.2462721  19.7200990   7.2082776
  19.7725737  20.3611565   6.6782886  19.5958126  19.0468180   7.4078482
  90.5751991  88.0152035  25.4252696  90.8500576  88.5652351  26.1588526
  89.7395229  88.3889294  25.1456380 112.4122047  28.2640934   8.3728087
 112.7704716  27.4051380   8.5965735 113.1088352  28.6918378   7.8748393
  37.3484421  24.4306755  31.8576336  37.6138759  24.7347856  30.9897089
  37.7343726  25.0647545  32.4619818   3.1597528  27.4652553  31.1262417
   3.7267935  27.9937506  30.5646467   3.7643510  26.9703865  31.6792321
 104.1294384 102.6191235   8.6104083 103.2622051 102.7208233   9.0025795
 104.1282177 101.7309666   8.2534558  12.3559535  22.3698473  29.1234064
  12.1955955  22.5595045  28.1989884  13.1741416  22.8248525  29.3228316
  20.1737833  -0.0489881   1.4253826  19.3575728   0.3243960   1.0927892
  20.1717305   0.1638113   2.3586264  86.8838692 104.6603394  26.9726133
  87.5498581 104.4969845  26.3047791  87.1164799 105.5134106  27.3392177
  16.2630594  23.4839630  47.3527288  16.7959535  23.4583426  48.1474638
  16.2147927  24.4128084  47.1265650  46.6955233   1.2559094   4.7825789
  46.2686634   1.8760838   4.1914713  47.0538092   1.8007335   5.4833138
   9.9842399  95.2915287  36.5652585   9.0441918  95.4589844  36.4981651
  10.2762747  95.8504105  37.2853971  46.2989902  11.9882679  29.3609977
  46.0241842  12.3634231  28.5243559  46.8441582  11.2392724  29.1201043
  21.9509816  11.4656484  45.1163387  22.3701310  10.9954989  45.8371019
  22.2623658  12.3664546  45.2047682 100.4847717  33.0940104   9.9790299
  99.8668671  33.8039565  10.1533687 101.1052513  33.4651661   9.3517494
  88.7696075 102.0344353  70.8391571  89.6155071 102.4777222  70.7744551
  88.8946152 101.2100887  70.3689957   6.2360460  11.5095890  30.8599401
   6.0396570  10.7534111  31.4129853   6.7017335  11.1423314  30.1086140
  59.1339397  98.4120274  23.3329582  60.0607014  98.4987831  23.5561562
  58.7730455  97.8534412  24.0214062  39.0960622   8.0589390  15.7441735
  39.5874000   7.7725452  16.5141070  38.3908677   7.4174756  15.6578243
 102.3836899 107.5337982  39.9173141 101.4883804 107.4773979  40.2511930
 102.8460693 106.8155575  40.3492260 108.5694218   1.5868391  12.7640069
 109.2052650   1.8563217  13.4268188 109.0396118   0.9498447  12.2260511
  19.8866272  23.1768417   0.6786020  20.6116772  23.1741023   1.3035232
  19.4597113  22.3292494   0.8033434 109.5338917  98.5955048  30.3950548
 109.2817402  99.2907715  31.0027146 109.0978241  97.8129387  30.7322145
  49.7926950  43.5689783  90.4505253  49.2762566  43.0747795  89.8139095
  49.5117760  44.4765759  90.3339863  10.0385463   2.8899875   2.2950414
  10.2499008   3.2690126   3.1482127   9.6236402   3.6044586   1.8117025
  35.1606011   9.0214735  30.3648686  36.0210156   9.2176139  29.9941301
  35.3513908   8.5799277  31.1924362  30.9115171  39.2282867  42.0445776
  31.6639853  39.4099545  41.4815283  31.2960196  38.9516544  42.8763580
   9.6428901   3.3248389  18.8468122  10.2545321   3.1420210  18.1335783
   9.5478469   4.2772996  18.8426077  81.9201279  88.8998413  36.4269567
  82.6926327  89.2297554  36.8858862  81.3711262  89.6728992  36.2957835
  89.9950981  87.0192528  33.6744881  89.1031647  86.7940807  33.9390373
  90.0617790  87.9607105  33.8340116  34.2015266  93.1162739  83.3709812
  34.2425275  92.4958420  82.6432323  34.4426823  93.9572620  82.9826164
   8.9976263 102.1424866  22.0527506   9.1116428 101.8250561  21.1569452
   9.8459983 101.9923973  22.4698448  22.1394849  51.1253309  18.7022483
  22.7317715  50.7321739  19.3432271  21.3011456  50.6879377  18.8509464
  80.3503036  58.7908697  85.1301765  80.8654308  58.3119583  85.7794285
  79.6340036  58.1964731  84.9069405  78.5833740 103.8228893  40.2930212
  77.8495502 104.3037605  40.6757689  79.3462181 104.1114616  40.7940483
 108.9888096  94.7424889  13.3089733 109.7481346  94.2994881  13.6876583
 109.2524719  94.9445820  12.4112725   6.1864346  84.9837589  61.8243217
   5.2715003  84.7045231  61.7902756   6.2065691  85.6557560  62.5056744
  81.7892265  88.8562012  18.2476056  82.5561428  88.4642792  18.6652982
  81.5593338  89.5936966  18.8128281   0.5772447   5.3937715   8.7060159
  -0.1710653   5.9843129   8.7927854   0.1938200   4.5169234   8.7248635
   5.8464938   1.3104767  30.0377488   6.4344984   0.9562093  30.7048154
   5.3800428   2.0188525  30.4814363  18.9631855 100.1531696  42.2706366
  18.5271180 100.9705925  42.0300245  18.3355057  99.7046471  42.8372765
  94.7405243  19.6775889   5.6701839  94.9854279  19.5332468   6.5841973
  93.8008690  19.4972217   5.6426436  79.0730190  85.1028156  63.9350986
  79.6393728  85.8157730  64.2303419  78.2322693  85.5235767  63.7552929
   7.3059094  88.7807369  43.1987572   6.7374557  88.0312920  43.3759975
   7.9437912  88.4528923  42.5648308  71.5973377  98.4273338  21.5978479
  71.9058704  98.6800480  20.7276893  71.6311646  97.4707413  21.5954971
 109.6789169  85.1580334  30.3226614 110.6221294  85.2320480  30.4679275
 109.2964458  85.8321667  30.8843470  49.9070835  11.7618871  43.6748457
  50.1254988  12.1066582  42.8090143  50.6977177  11.9035256  44.1954803
  33.6547017  21.4160681  39.6441936  33.8264012  21.2237406  40.5660200
  32.7328682  21.6727805  39.6207500  43.3143091   8.1893504  77.9046440
  43.2512236   7.3288304  77.4902105  44.2433453   8.4134990  77.8509998
  12.9367125  34.6839023  44.7925758  12.3406196  34.0221047  45.1431894
  13.5171545  34.8949385  45.5238628  49.4939518  49.0141535  78.8984442
  48.7114906  48.4723663  79.0006638  49.7979593  49.1670513  79.7931147
 104.4875717  13.0390728  23.6508751 104.0482903  12.8183556  24.4721818
 103.9188480  13.6921060  23.2430410  21.6757584   0.2304028  12.9754019
  21.8366790   0.8677098  12.2795737  21.5099335  -0.5915358  12.5137198
  31.9784737   6.8353277  28.0039096  31.0821080   6.8753523  27.6705003
  32.1299696   5.9053689  28.1726003  90.3773499  86.8516350  37.8212762
  89.8985958  86.9917011  38.6382222  91.0132694  86.1675167  38.0306101
  52.5247955   0.9500975   4.3855169  53.3224583   1.0154492   4.9105859
  52.6431656   1.5956154   3.6887193  60.3550816  23.4361434  38.8692451
  60.7310486  23.3469343  39.7449851  60.7909441  22.7593255  38.3513880
 101.1631393   7.1600157  16.2462890 101.0761452   7.3608518  17.1781313
 100.4775143   7.6780277  15.8246100  61.9595671  86.2139702  83.1938839
  62.8434944  86.0583687  82.8611851  61.4163733  85.5684471  82.7416992
  86.3104630  98.5335064  25.7902980  85.8744240  97.7557182  25.4422331
  86.4026165  98.3575821  26.7266679  26.1004734  33.5898018  45.0385571
  25.4385900  32.8983402  45.0338125  26.0008144  34.0108991  45.8923578
  10.0015366  22.2823143  43.6246061  10.5582809  21.5079880  43.5428238
   9.3393302  22.1743679  42.9419231  14.9153447  15.5656755  30.4059863
  15.4858410  14.9256301  30.8315539  14.7632468  16.2331367  31.0750103
   6.1896497  96.0542965  28.1805205   5.8835948  96.9102478  27.8806806
   7.1092850  96.0229206  27.9168558 108.4021378   6.6939789  39.7781301
 108.4051323   5.7444447  39.8989940 109.3222237   6.9476241  39.8511481
  37.1720648  22.3001146  29.4774032  37.9324603  22.8665185  29.6086121
  37.5444460  21.4478588  29.2510772  64.5694876  74.5392704  86.8660069
  63.7954950  75.0427628  86.6136932  65.0920963  74.4863224  86.0658169
 108.8445473 103.0078125  45.9578657 108.6672401 103.3951759  46.8150425
 108.0993080 103.2704067  45.4175901  37.7019691  11.3206661   9.3283081
  37.4700284  11.6660345  10.1903725  37.3045349  11.9336760   8.7098444
  17.9958069  17.3132658  13.2334375  17.5258160  16.4796579  13.2543921
  17.4206066  17.9241669  13.6940634 109.9706364  36.3174701  76.7805862
 109.5796490  36.9583201  76.1867189 110.0047970  35.5080843  76.2707186
  25.1376247  96.5384293   1.5694799  25.3360224  97.2098160   0.9167032
  25.4118729  95.7178307   1.1600488  80.8277607  73.6569738  30.1923418
  80.3131390  74.4548416  30.3139997  80.4201603  73.2208252  29.4440985
  97.6311016  44.5972729  34.8130512  97.6377964  44.8102760  35.7462263
  97.9122353  43.6831236  34.7740126  24.1699147  26.1209846  40.5440092
  24.9216723  26.6999745  40.6699467  23.4627271  26.7035031  40.2668953
  51.2398815   3.3868879  15.5173862  50.5844545   3.3918878  16.2149668
  51.2752151   4.2945245  15.2154279 106.9593048   3.2977498  32.8236341
 107.5000954   2.7672702  33.4087610 106.5740299   2.6666617  32.2157502
 113.6731102  11.0704553  20.3772020 113.5826259  11.3710999  21.2814450
 114.1076147  11.7944908  19.9264133  41.0687447  11.1865962  13.1590271
  40.1956797  10.8049977  13.0675101  40.9441042  11.9315255  13.7470555
   8.6982137  19.7636688  19.7844577   7.9977798  19.2611063  19.3684590
   8.2951134  20.1302075  20.5714726  54.8415422  11.2073684  63.9972019
  54.3517447  10.4015410  64.1614342  55.7575703  10.9305573  63.9749575
  76.8640661  90.6917858  60.8524227  77.7652264  91.0144329  60.8584499
  76.4760590  91.0795879  60.0680161  48.9950657  11.7852652  37.5311518
  48.4358835  12.5602365  37.4766493  48.6873770  11.2177181  36.8244338
 100.8718109 101.7818832  26.1698985 100.3941917 102.3184681  26.8025017
 101.6207314 102.3210430  25.9156084  28.1757689   4.1503745  12.6676273
  28.2127619   3.2009417  12.5516927  28.3898211   4.2875001  13.5904551
  59.6297503  19.1258860  33.1148863  59.4555044  18.3881128  33.6993194
  58.8352299  19.2062259  32.5871444  62.3624182 104.7837734   7.2046566
  63.0455875 105.0874710   6.6069317  62.8050375 104.6942902   8.0486417
  13.5676670  93.3447170  71.5927458  13.7370551  94.2468357  71.3212395
  13.9530385  92.8094387  70.8990574  92.7754879  94.9440861   5.6717527
  93.2336712  94.3403244   5.0871432  92.9565811  94.6104240   6.5504462
  81.7449284  97.0770931  28.7128401  82.5738239  96.6001511  28.6717415
  81.1012173  96.4705944  28.3467579 113.4204388  83.2337761  16.0879481
 113.3191490  82.5072670  15.4730082 114.0602684  82.9194450  16.7267334
  92.7110004  98.8147831  42.9676676  93.1802654  97.9836464  42.8952742
  93.3448982  99.4142342  43.3614302  27.0211411  31.4124870  87.8831005
  26.4646029  30.6528878  87.7113247  27.0133543  31.5045667  88.8358307
 105.6017590  76.3269329   8.6545789 105.8719921  76.7920685   7.8628361
 105.7637978  76.9482565   9.3644631  65.5261374  54.6315670  46.9223690
  65.6230307  55.1514339  47.7202320  65.6956959  55.2498388  46.2115812
  16.9007647  78.2960749  31.7767644  16.1749375  78.8791513  31.5544391
  17.6861608  78.7944508  31.5509200  34.0358400  12.5786126  23.3017945
  34.7175741  12.4740243  23.9655209  33.3175015  12.0244074  23.6068797
  41.6470814  85.1873493  75.5684662  42.1576643  85.5120468  74.8267698
  40.7439852  85.1770687  75.2513790  66.4675713  73.6864042  27.2731757
  67.1982479  73.3130693  27.7660966  66.7508268  74.5760012  27.0619631
 104.5372581  98.1331158  23.0429983 104.9688625  98.9066982  23.4056473
 104.4233608  98.3356094  22.1144223  25.4485583  51.4414406  88.5381031
  26.1382413  51.4382315  87.8743553  25.8197927  51.9387817  89.2668438
  72.8382635  96.9439220  24.4030714  72.8615141  97.7261734  23.8519144
  73.4825945  96.3549900  24.0103531   3.1266659  59.5606756  88.3370876
   3.1643137  59.5644522  89.2935371   3.6247408  58.7844706  88.0808449
 100.2263451  71.7497301  38.5672235 100.4549885  71.1679316  39.2921138
  99.3562984  72.0803356  38.7907243  85.0036240  97.0418835  62.0489454
  85.4927063  97.6302242  62.6241732  84.9023438  96.2380409  62.5586700
  69.3561220  58.5348701  20.1401877  69.6328259  58.3616590  19.2403734
  68.5152912  58.0850029  20.2230048  89.1932774  49.9476290  17.0647204
  89.3491459  49.5615578  16.2028134  88.4563541  49.4507027  17.4200320
  88.9699364  86.0138130  19.3302095  89.8801136  86.2491322  19.1501212
  89.0284729  85.2196789  19.8613942  90.9230709 101.6841125  35.9979463
  90.4907036 101.2635040  35.2547216  90.3286552 101.5393639  36.7341232
  70.1892090  29.7451210  70.7638264  70.0420094  30.2000618  71.5930367
  69.8690271  30.3527665  70.0971270  92.5810051  63.1910229  17.3976302
  92.7939796  62.3770618  16.9411910  91.6436386  63.3122396  17.2463775
  55.9308004  12.6567364  69.3149376  56.6862249  12.8853226  69.8565197
  55.5749369  11.8666005  69.7214842   4.9196443  76.9735289  29.3531108
   4.7316629  77.7426195  29.8910666   5.4732835  77.3052120  28.6462140
  74.2677212 102.3036480  10.5313420  74.6389008 102.7034569  11.3178623
  73.7678146 101.5548706  10.8563936  91.1655903  21.8856907  77.6054478
  91.7548752  21.8830013  78.3597469  91.3977814  21.0957336  77.1173000
  72.3842239  90.7354641  23.0701685  72.3187971  91.3270760  22.3205352
  71.7621422  91.0865307  23.7073493  23.3262706  27.9736233  84.5763588
  23.5360909  27.0407557  84.6206760  23.2891107  28.2544589  85.4906845
  61.8750286   7.7886546  77.7392960  61.4815950   8.5999280  78.0606604
  62.5293446   7.5616443  78.4000301  94.1495419  89.0820980  26.2981033
  94.2989159  89.0287304  27.2420692  94.6252918  88.3337975  25.9376407
  62.6857901  87.1571445  37.9592562  62.6669836  86.3830471  37.3965478
  63.0847359  86.8514538  38.7738872  29.8998094  14.4016588  89.9183846
  29.3561172  13.6399984  89.7171211  30.6886077  14.2791712  89.3901539
  24.6433401  24.7360873  10.6949413  24.3804884  23.9329052  10.2454531
  24.4300818  24.5767713  11.6143811  96.7840576  66.6780186  18.8934386
  97.0270157  66.5013313  19.8022735  97.5757313  66.4836502  18.3917475
  94.3784332  82.7150154   2.7882990  95.0099754  83.3587360   3.1092441
  94.2361546  82.1281624   3.5309947  61.3314962  76.7248964   9.7621721
  60.7664013  77.4867868   9.6339947  61.2267971  76.2115622   8.9610761
 106.3344574  83.2324886   5.9795320 105.5149651  82.8262615   6.2617451
 106.1131763  83.6733532   5.1592207  41.1718798  30.2564430  87.7205658
  41.7087603  29.7837090  88.3565807  40.4027605  29.7004032  87.5960445
  66.3176918  11.1686158  73.9974880  67.1695232  11.1583018  73.5610151
  65.7548285  11.6755068  73.4122753  80.8431053  98.4148407   9.6594310
  80.4215145  97.5865841   9.8885143  80.1288033  99.0519142   9.6474373
  70.3159857   8.1619710  57.7837467  69.7819090   8.8854325  57.4557304
  69.7085094   7.6293790  58.2971191   0.3734414  12.1507740  45.1824856
   0.9431478  12.1845996  44.4140291  -0.0720678  11.3063943  45.1133728
  83.6219406  74.3431759   0.8975524  82.7503395  74.7261524   0.7981884
  83.9449692  74.6949530   1.7270929 109.7478104  68.2046986  32.0262957
 109.0116119  67.8291130  32.5091934 109.3646336  68.5079622  31.2032318
  87.4616528  66.0911036  18.6602902  87.7217007  66.7263508  19.3274236
  87.8975010  66.3899422  17.8621912  80.5215931  88.0571079   5.1376253
  81.3344574  88.0191612   4.6336019  80.7806492  87.8201580   6.0281181
  71.3519478  67.4802542  80.5026436  72.1847391  67.9512119  80.4727840
  70.6955862  68.1398869  80.2783489  69.3410063  91.6792583  24.5538712
  68.5536003  92.2183132  24.6289706  69.0150785  90.7793140  24.5434117
  11.8006384  90.3760147  25.7326198  11.9499743  89.6623039  26.3527441
  10.9016252  90.2466393  25.4305124  92.4409485 101.9873524  32.8570271
  92.6049614 101.1721420  32.3829317  93.1056786 102.5930214  32.5291157
  38.5161710  40.9005785  86.6744041  38.9074802  41.7696333  86.7630196
  39.2209387  40.3550386  86.3252258  47.5927877  52.0291281  84.6220779
  47.2148848  52.8711557  84.8758698  46.9017601  51.3920736  84.8033810
  98.9109135  65.4154396  17.6096523  99.3735886  64.7362947  18.1004882
  98.4594440  64.9409485  16.9116116  89.3311310  51.8400812  20.8783746
  88.6159706  51.8770027  21.5135217  89.5397663  50.9086657  20.8064818
  81.1611366  93.9461040  29.4351172  80.7362843  94.0552998  30.2858806
  82.0841980  94.1366386  29.6021461   6.8889034  78.5855722   0.9713426
   6.7680031  77.8024769   1.5083447   7.6735854  78.4027910   0.4545290
  93.7583637  11.1692107   2.1173906  94.6456909  11.3531423   1.8090990
  93.7506771  10.2252293   2.2757334  66.6894865 103.3189774  11.2138462
  66.4463902 104.0978527  10.7133508  65.9203196 102.7515507  11.1624765
   3.6260471  11.3357377   2.4719107   4.4173118  11.7243469   2.8448921
   3.6120957  10.4430056   2.8169724  70.6591034  45.3185701   3.4520829
  71.5992880  45.2179718   3.6009574  70.5976725  45.8836174   2.6819015
  77.9831314 101.2782955  14.0214264  77.5840950 100.5423641  14.4855452
  77.9894018 101.0074425  13.1033683  91.1564064  94.7501564  11.4936221
  91.9474888  95.2216244  11.7546511  91.4678383  93.8808155  11.2416708
  26.7865992  38.4045577  83.8704205  25.9637880  38.3615875  83.3832073
  27.1372819  37.5149608  83.8271904  78.4397602  11.8561339  86.4873981
  77.7263260  11.7164707  87.1100807  78.0046654  12.1470082  85.6859493
 111.0123634  69.6855068  18.0156195 111.7144394  70.2308893  17.6608288
 111.1037159  68.8497972  17.5579333  97.3702145  52.4053192  18.4765768
  98.2408047  52.0751095  18.2546234  97.4677181  53.3575392  18.4752607
  98.6938286  78.9674234  48.4083128  98.3662796  79.2445469  49.2639637
  98.4519100  79.6801472  47.8169346  11.1750448  58.7502432   7.2242081
  10.8459711  59.5581722   7.6181483  10.7022107  58.6781740   6.3950723
 108.3599472  64.9146223  19.3408334 108.5550117  64.2896605  18.6425495
 108.6645603  65.7560825  19.0011442  23.5120845   8.1761080  35.2581024
  23.2434750   9.0606916  35.5062795  22.6900077   7.6988226  35.1457620
  75.8334684  63.7651253  23.9971876  76.7758703  63.6196423  23.9138222
  75.7474661  64.7096014  24.1268039  88.3691311  78.6136293  48.4146500
  88.9606476  78.7131643  49.1605949  87.9852962  79.4824028  48.2957506
  65.8854008  21.2209225  86.7942429  66.5614080  21.5894055  87.3629856
  66.1208296  21.5215898  85.9165192  72.4118042 105.4027367  29.4219685
  71.5007353 105.1093674  29.4110298  72.7772808 105.0194931  30.2193284
  18.9598179  69.7970724  51.0721016  18.7144041  70.5297947  50.5071878
  18.3194053  69.1146708  50.8710337  69.9865389  77.0613813   6.8905544
  69.6544313  77.9580402   6.8465233  69.3252420  76.5385056   6.4372200
  92.9734230  79.6065807   8.4911430  93.3925152  79.0265274   7.8554261
  92.1940327  79.1284323   8.7742549  77.7985716  49.7376966  17.3420143
  77.4156761  49.5626307  16.4823782  78.5581255  50.2903175  17.1578479
 108.6981106   8.1112272  31.0189080 108.5239792   7.6658195  31.8480778
 108.4069061   7.4926555  30.3489804  90.0779247  77.2720385  19.5103133
  90.1778030  76.7671585  18.7032485  90.9157467  77.1700859  19.9618483
  29.6375608  49.9563408  66.1376667  30.4385018  49.6787786  66.5822840
  29.9424720  50.3625298  65.3263283  82.9805183  70.7716560   2.1711214
  83.2594872  70.7285261   3.0857515  83.7791348  70.6087923   1.6692004
 103.3127689  94.7621250   3.0623791 102.4290466  94.3969536   3.1062546
 103.8387871  94.0690231   2.6634470  10.8949423  87.6905918  39.1653681
  10.3335464  88.3695507  38.7910891  10.5178392  86.8684483  38.8521457
  57.3004055   2.3892011  10.7027030  57.4388504   2.4261534   9.7562885
  57.8111744   1.6324022  10.9901118  65.7071018  75.3523684   1.4222753
  65.1561499  74.9647188   2.1022841  65.9778929  74.6103954   0.8815536
  50.0773859   4.4100630  31.6940904  49.9563646   3.6278471  31.1558294
  49.4020748   5.0166392  31.3903570  80.2185726  80.5316544  37.2653985
  80.0799942  79.7021055  36.8083692  79.3363190  80.8518124  37.4534392
  47.3805189  45.8046150  89.4123077  46.6716814  45.1647186  89.3466091
  46.9480991  46.6139126  89.6848583  46.0592461   9.7490704  24.2334294
  46.2966251  10.3868127  24.9066067  46.8577957   9.6366680  23.7177587
  90.6350327 102.1756363  14.8290420  90.6599331 102.0687771  13.8781512
  90.5934715 101.2819958  15.1694858  90.2820015 103.6017990  33.4480286
  90.8918762 102.8830528  33.2816124  89.5566177 103.1954479  33.9223123
  25.5371046   1.4446002  33.2830238  25.8624077   1.1736111  34.1414976
  24.7843313   2.0029509  33.4774685  82.1927166  75.9493494  31.9816828
  82.8841114  76.2571096  32.5677586  81.8055534  75.2029991  32.4391699
  86.4377689  69.7878599  22.1074843  85.8756828  70.5598211  22.0414019
  85.9097004  69.0755177  21.7470074  46.1772633  10.8221734  11.2111211
  45.4622889  10.6047618  10.6129777  46.5276861  11.6473222  10.8756161
  81.6821384 105.1239586  19.0394258  81.6284084 105.9582043  19.5056736
  81.7275810 104.4649315  19.7321332  37.7237487  35.2399635  92.8439140
  37.8845644  34.3725061  92.4725723  37.6515412  35.8164954  92.0832348
 107.6151085  86.6106606   9.3149918 107.6935673  86.1028862   8.5073787
 107.2851086  87.4630737   9.0308660 101.1707973  95.5261230  10.6018007
 101.1577702  96.3562012  11.0782838 101.6738605  95.7128334   9.8091459
  83.8293362  91.9499779  32.0103788  84.7458076  92.2107220  32.1016502
  83.7537956  91.1527061  32.5346637  60.8464828 107.2370291  10.0940526
  60.6212631 106.4034059  10.5070627  61.6820255 107.0701937   9.6578580
  84.2173195  89.9770546  37.5209188  83.9390850  90.0854206  38.4303522
  84.8182774  89.2322922  37.5414348  40.6353664  11.2829447  23.2370138
  41.5499306  11.5411711  23.3515429  40.3777695  11.6770720  22.4036217
  16.3694048  82.8079700   5.0689846  16.8261826  83.5138416   4.6114489
  16.0829020  83.2025051   5.8926928  93.3599567  80.0709820   3.9160728
  92.4328804  79.8760271   3.7791499  93.7079048  79.2900276   4.3465042
  32.1934557  26.4045119  27.5035977  32.6883149  26.8176556  26.7960238
  31.5083885  27.0376563  27.7181745  16.1031985  16.1216891  46.7711353
  15.9948599  15.9734547  45.8317089  15.5916071  16.9107592  46.9496679
 104.3092060  94.9896431   9.0344727 103.8585472  95.8336639   9.0068531
 103.6244678  94.3463993   8.8511372  13.6517882  97.4278069  44.4052505
  12.8386390  96.9404602  44.5375776  13.7863874  97.4163437  43.4576273
  95.4803371 103.9258289  34.1628647  94.7721004 104.1215611  33.5494208
  96.1632252 104.5623207  33.9512539 112.0077705 104.6058083  23.1275082
 112.7546883 104.0172386  23.2366729 112.0700359 105.2113628  23.8661981
  84.9483967  78.9476824  24.8982573  85.8746147  79.1886711  24.9147177
  84.9502659  77.9907846  24.8742080  94.6503448  76.3465261  14.0525007
  95.6067944  76.3137197  14.0337026  94.4250107  76.2359238  14.9762011
  37.3076963   2.6752281  35.0685668  36.5398192   2.3331146  35.5263376
  37.0577359   3.5628223  34.8118019  15.4048562  42.7205610  24.6040463
  15.5495131  42.0753002  25.2961016  14.6681750  42.3721552  24.1019058
   2.4943092 105.0047970   6.9974595   2.6260918 104.7920513   6.0735524
   1.5752861 105.2663326   7.0542943   1.2120030  93.6246967  28.7488008
   0.3781547  93.3891773  28.3420277   1.8708250  93.1660557  28.2274199
  29.7977257  15.0430584   4.4994798  30.5103850  14.8197544   5.0982153
  29.2793727  15.6918454   4.9755239  24.0889525   7.2249734   4.3719238
  24.7689223   7.0103806   3.7333131  23.4989071   6.4714348   4.3558761
  90.6310749  93.7164783   4.1642377  90.1535892  94.1411877   3.4515965
  91.0225296  94.4394112   4.6545056  22.3605537  10.2035904  22.7379847
  22.5690651  10.9023869  22.1179533  21.5114403   9.8708838  22.4472189
 106.4994526  72.4376535  32.2809458 105.7892609  72.9471302  32.6711917
 106.8176079  71.8846035  32.9944897  69.0120459 107.2210693   9.1968149
  68.8137722 107.9837990   9.7401071  68.2040262 106.7079163   9.2003608
 102.6811504   1.1910959  18.5539830 102.0821667   0.6666518  19.0854061
 102.2769451   2.0581982  18.5226917 109.7516918  94.9012089  49.3308020
 109.9276733  95.7772350  48.9875221 109.1622639  95.0478172  50.0706100
  15.9251440  22.7774620   2.1290013  15.3951085  23.1317186   2.8430009
  16.7466092  23.2666564   2.1750019   3.0723965  63.2418013  14.7421277
   2.6873219  63.3348513  13.8707542   2.3368773  62.9984331  15.3042805
  92.7561855  91.8533039  33.1277442  92.5266266  91.6790104  34.0405178
  93.2947731  92.6438236  33.1629777   8.5224092  77.6127720  62.5039196
   7.9969597  76.8972445  62.1459341   8.5107505  78.2834053  61.8210220
  91.0305500   9.5849586  48.2658863  91.9825077   9.6832919  48.2843304
  90.8826065   8.7783003  47.7722788  79.0043402  31.5165997  91.3094425
  78.9642525  30.5610394  91.2703323  78.5057068  31.8086696  90.5463600
  85.2629662  31.5714526  71.3872433  85.1320171  32.0685959  70.5798197
  86.1913776  31.6851521  71.5906143  18.6691928   9.2652982  39.1430140
  17.9015017   9.8005885  39.3438768  19.1726720   9.2536265  39.9570203
  89.1800785  34.5338035  80.5654907  89.6319103  34.3744826  79.7368240
  89.3737793  35.4481769  80.7719707  23.4518886   7.2599953  24.1847134
  23.6178923   8.1090528  24.5943165  23.8998055   6.6300356  24.7492933
  57.3434114  37.6019025  74.1651201  57.1836662  38.5027027  74.4466734
  58.2970190  37.5197053  74.1548824  98.6321831  87.2823048  20.9785867
  99.1174030  87.8267670  21.5985441  98.4133148  87.8750134  20.2595425
 105.3910542 105.4245853  39.6151471 105.1818943 106.3130379  39.3268108
 106.0370350 105.5445385  40.3112459  39.9779510  36.0007024  89.7779179
  40.8089972  35.5530858  89.9367619  39.3392968  35.2938986  89.6842098
 102.4359703  12.0801234  75.3183270 102.3689270  11.8159580  74.4007444
 102.0483589  11.3532197  75.8057690  95.4775715  82.9480648  15.6298172
  95.4308796  83.8991547  15.5324924  95.1654434  82.6059628  14.7920942
  74.8944235  38.5978532  90.7998276  74.0533590  38.8665724  91.1694717
  75.5341959  39.1765141  91.2146473  56.8426085  32.9262042  84.8330116
  57.5113678  32.2704029  85.0302887  56.7695856  32.9142475  83.8786793
  86.1799049  76.4023781  80.5513191  86.6569710  77.0838356  81.0248852
  85.3756905  76.2786150  81.0554600   3.1881425 106.3876247  81.4981174
   3.9233312 106.1853886  80.9194660   3.5921288 106.7899513  82.2669792
  10.1522839  10.8641064  26.4576197   9.8401904  10.4348469  25.6610227
  10.2437317  11.7850745  26.2133121  16.9320679  78.5876513  26.6986394
  17.5935614  79.0313482  27.2294831  17.1531689  77.6588869  26.7675281
 108.2740211  98.7555218  11.3792825 108.0583477  99.5366573  11.8887293
 108.7984467  99.0832996  10.6486905  78.2986355  78.5564375  20.5791068
  78.6977339  79.0320492  19.8505843  78.4472227  79.1166210  21.3409114
 104.5311737  96.7745495  30.4140377 104.2610836  95.9265327  30.7663822
 105.0549126  97.1680641  31.1119437  55.4163790  37.4875450  88.6728764
  54.9610138  36.8748903  88.0953598  55.5791903  36.9870663  89.4724083
  31.8558955 105.4486847  12.5081527  32.6943517 105.8945656  12.6282120
  31.2197089 106.0122681  12.9484653  56.5448093  42.3867464  82.7519608
  57.4173117  42.4436426  83.1414890  56.7068720  42.1928596  81.8287182
  24.0860724   2.8481749  12.3587728  24.4057918   2.7722153  13.2577956
  24.3470931   2.0271748  11.9415677  33.4623313  18.7106872  17.0492816
  33.6893439  19.5991063  16.7746794  32.5053954  18.7037802  17.0707202
  25.8940601  49.0400028  21.9245911  25.7483959  48.3480263  22.5697160
  26.4460897  48.6327457  21.2570286 102.4267864  84.6307278  40.2948093
 103.0520058  84.3353367  40.9566832 102.9018497  84.5576191  39.4670415
  31.8326616   5.0245529  25.2190471  30.9984422   5.0803691  25.6850886
  32.1333075   5.9311700  25.1566935  69.9022961  19.8193145  79.7523689
  69.0232944  19.7302318  79.3840599  70.1829481  18.9201391  79.9225187
  41.8010855   0.2029805  28.6668277  41.3025284   0.9485517  29.0011907
  42.6557207   0.2764771  29.0915942  88.5921478  59.5429564  88.5200977
  88.0633450  59.9394560  89.2124844  89.4959927  59.7379303  88.7676334
  48.5405588  29.6561790  42.9791069  49.3268824  29.1163254  43.0596018
  48.7903118  30.5005836  43.3543921  85.1110077  66.8016815  12.4534523
  84.5734024  66.8469524  11.6627824  85.7365322  67.5200701  12.3592257
  87.6387691  53.4272528  39.9582887  87.6406765  54.2503834  39.4697356
  87.3663807  52.7695608  39.3183851  32.9523611   2.7370423  24.9854755
  32.5962543   3.5901481  25.2337313  32.3135018   2.3813942  24.3677354
 102.8721142  73.1888628  31.7474318 102.9013348  72.4548388  32.3610973
 103.1299305  72.8091955  30.9074283  65.5818987  14.3557727  89.9287415
  64.8014975  14.4813740  90.4685879  65.3374147  14.7013557  89.0702343
  28.6247778  31.5807033   3.1508720  29.3582559  32.0557904   2.7603176
  28.5762763  30.7642365   2.6536161  77.8975058  94.3767262  55.5947256
  77.8641939  95.0534916  56.2708330  77.6723480  93.5678005  56.0542583
  22.8068686  51.8738604   8.2083726  22.6410723  52.2889614   9.0547967
  22.3366380  51.0413551   8.2536799  99.9215794  92.7368069  13.7998533
 100.4291630  93.4860516  14.1116631 100.4783821  91.9790840  13.9789081
  96.1586761  72.5364971  32.9265714  96.2256336  73.0324078  33.7425494
  95.5969620  71.7925215  33.1438470  91.0749149  81.4087582  35.5918932
  91.3438797  80.5121040  35.3921366  90.1188564  81.3868713  35.5505347
  51.9660044  14.0250731  35.0732851  52.7634144  13.6054230  34.7503877
  51.7602396  14.6877408  34.4139194  88.3166695  71.4055014  15.4178572
  88.2519817  72.2428083  15.8771682  88.1788445  70.7473516  16.0990858
  75.5614090  79.5217657   0.8432459  75.4504538  78.8388109   0.1818121
  74.7410583  80.0143814   0.8188266  97.0819283  93.5733700  53.2364702
  96.2543011  93.9238834  53.5657358  97.7536392  94.1096210  53.6577368
  74.3220663  91.5388298  29.2351222  74.5283508  91.4343548  28.3062720
  74.4558573  92.4709606  29.4068098  59.4896412   9.4061267  21.7253757
  58.9846754   8.8731265  21.1112475  59.8596859   8.7747693  22.3423743
 100.8343792  82.6825428  10.5078661 100.5526829  81.7772198  10.3764975
 101.3298225  82.6628208  11.3266277  70.7874966 103.0907154  19.7536778
  70.7225180 102.4015522  20.4147816  71.0971594 102.6403618  18.9678538
  81.8086243  91.2168789  39.1084671  81.9222260  90.7413864  39.9314141
  80.8607864  91.2477112  38.9785314 104.5460510  95.8644962  62.5373316
 105.2301598  95.5313206  63.1180286 104.8214531  95.5923653  61.6619301
  35.7392550  42.2259903  90.2058792  35.8672738  43.0665064  90.6456184
  35.6109667  42.4544334  89.2852306 101.2328911  90.5883026  25.1128817
 101.4156532  91.2786293  24.4754720 100.6938934  91.0143185  25.7793880
  64.1240549  67.0987892   6.1987245  64.7478437  67.8132915   6.0698622
  64.5693398  66.4966869   6.7948985  80.6156921 102.1356487  20.3285336
  81.2190533 101.4460659  20.6053948  80.1561642 102.3876286  21.1295199
  87.2802258  64.6976137  21.6427851  87.0887089  65.6038237  21.4012671
  87.1027184  64.1951895  20.8476186   4.1690663   0.3042497  19.5668161
   3.3011577  -0.0196780  19.3259072   4.3837824   0.9425773  18.8866198
  18.3486104  13.5043442   5.2975655  18.8141382  12.8986347   4.7208238
  18.9395332  14.2520642   5.3867751  25.2689552   2.9616213  50.4279041
  25.2028823   2.4440601  49.6254063  25.8551455   2.4563411  50.9912014
  24.6805024  10.7726121  64.1481495  23.9775610  10.3453338  63.6587286
  24.8776865  10.1666427  64.8623991  11.0654104   3.9612043  40.7094383
  10.6986666   3.2426664  40.1942348  11.7472887   3.5508692  41.2413216
  65.6352663   0.6083937  43.7750387  64.7777987   1.0325862  43.7428570
  66.1731768   1.1087184  43.1613922  47.7771521   1.3411149  26.4818001
  47.4492311   1.2946884  27.3798776  48.2601070   0.5236212  26.3606048
  46.1829662  26.9315481  12.5757813  46.4574146  26.2176108  12.0002782
  46.9060850  27.0315647  13.1949151  90.0433350   9.7905487  77.0229387
  89.6879864   9.8083234  77.9115582  89.3337154   9.4344401  76.4882898
  21.2624073  15.6179655  43.6878872  21.7930675  15.8062112  42.9138088
  21.8432522  15.1168859  44.2603970  33.5803294   8.7905830  10.7842720
  33.3335829   7.9369706  10.4283309  33.7105322   9.3429446  10.0134444
  94.4152641 100.2523613  10.9647274  94.4773865  99.7460175  11.7746568
  94.8672104 101.0731983  11.1601651  20.8311701  19.0348780  48.8395357
  20.1778412  18.3829296  49.0932178  21.1036754  19.4348013  49.6653891
  85.5920696  80.6999969  37.3908114  85.9372711  79.9053526  37.7977681
  86.3662815  81.1554527  37.0600772  89.1567326  54.4868135  92.1772671
  89.4343567  55.3277349  91.8139362  89.9732971  54.0135193  92.3367786
  62.4830151  73.3912659  13.6911929  62.0415831  72.5686312  13.4799063
  61.8433905  74.0691853  13.4731472  49.4377851  34.6775699  78.0704880
  50.3652573  34.8603606  78.2208824  49.2492247  35.0782800  77.2218943
  92.1598625 103.3367157  29.4691277  92.4940205 103.8633919  28.7430525
  91.2129879 103.3119392  29.3311381  88.9995098  82.0321369  53.7809277
  89.5401192  82.0566845  54.5704651  88.8282776  82.9520321  53.5792017
   5.3712803  65.7425976   7.9253894   4.6022269  65.2331734   8.1808794
   5.2604222  65.8888340   6.9859445 109.1788101  84.0781784  27.6338172
 109.7891426  84.7302341  27.2895098 108.9820957  84.3791294  28.5209274
 103.3044815  74.8942232   1.5173441 104.1038609  75.3950405   1.3548437
 102.8387833  75.3966808   2.1858457 100.7993698 106.1480808  32.2919774
 101.3834476 105.4380798  32.5583720 101.1432171 106.9215393  32.7389169
  40.1181889   4.8201188   9.3426621  39.4309354   5.0574601   9.9652213
  40.4740763   5.6583238   9.0477246  72.8165483  79.9538803  27.5062299
  73.0886364  80.6931782  26.9625092  73.4872961  79.2874241  27.3573518
  31.8253207  37.2957325  91.5038681  31.4722228  36.7806149  90.7784653
  31.6537476  36.7639565  92.2810555  23.5478783  15.5134940  35.6416869
  23.3243775  15.5077326  36.5724111  22.7420831  15.7872939  35.2035546
   0.0641542   3.2194886  36.3112807   0.6525818   2.6481381  35.8177805
  -0.2798586   3.8298094  35.6590581  12.2499573  91.9836426   0.8962762
  12.9907656  91.5031052   0.5267981  12.5985932  92.8555870   1.0817499
   2.5803623 100.6194973  24.0875554   3.2735080 100.8390522  24.7101116
   2.8008592 101.1152267  23.2989717  82.3673534  88.1832790   8.0717468
  82.5940514  88.8724804   7.4473763  81.4212894  88.2686806   8.1897056
  93.2959270 101.4168072  62.7670336  94.0296078 101.9407749  62.4454737
  93.2107162 100.7075500  62.1299076  76.0709620  58.4483624  32.4470377
  75.2111626  58.8194418  32.2488546  76.6391373  59.2096996  32.5644040
 102.4734211  80.8558941  35.9337592 101.7588615  81.4927769  35.9298658
 102.0466614  80.0182152  36.1137581 101.5185165 104.5267296  25.5661678
 101.9689465 105.2282429  26.0365200 100.6228065 104.5492268  25.9029460
  80.9679604 103.6438465   3.6309201  80.6024170 102.8193951   3.9516959
  80.2929401 103.9953327   3.0503771   9.8125833   9.5737475  23.9838123
   9.1582942   8.9112872  23.7618136  10.5115294   9.4443256  23.3427548
  92.1502590  49.1838264  78.9547300  91.4456749  49.7885036  79.1874456
  92.6749992  49.6629429  78.3133841  48.3638000  64.5439243  87.4972725
  49.1219568  63.9711952  87.3814678  48.3604574  64.7508335  88.4318352
  71.7921162 103.5635853  46.2863398  71.8103075 103.9377594  47.1671867
  72.5498772 103.9491749  45.8466244 108.3314896 103.4087658  31.4210796
 107.7807236 103.3494568  32.2017026 108.9243507 104.1383839  31.6011119
  24.1832852  15.0923991   6.5377700  24.7495174  14.3330646   6.6756999
  24.6438956  15.8152092   6.9639325 106.8786907   0.9337497  31.2794852
 107.7902412   0.8977814  31.5693235 106.9333649   1.0446405  30.3303027
 103.7705421  93.6812878  25.5831432 103.0453682  94.1235352  25.1418138
 104.1892910  94.3677425  26.1024332 101.7139149  91.2725544  30.1184440
 100.8260822  91.6285992  30.0834298 102.0885563  91.4786243  29.2620516
  26.1306691  25.4526258   4.3519822  25.4075050  25.7244539   4.9171141
  25.8489704  25.6941891   3.4696415  89.1393471  95.6426620  13.0878103
  88.4673309  95.1018524  12.6729095  89.9466038  95.4187202  12.6247489
 110.4550076   2.9097530   4.8469970 111.2706947   3.3671707   4.6428865
 109.8129654   3.2843617   4.2439371 110.3783417 100.7857990  11.2893498
 109.6943951 101.3399601  11.6653144 110.0060177 100.4715538  10.4654205
  62.2537184  42.5991201  83.2890129  62.1063375  41.8841553  82.6698685
  63.0706692  43.0038548  82.9974556 103.5602570 104.4443417  20.9280562
 102.9310799 104.4021034  21.6481781 103.4308910 105.3131199  20.5476236
  96.0306263  98.0611134  38.0542493  95.5943203  98.3419228  37.2498775
  96.2073517  98.8742828  38.5272837  55.8141661  41.0874510  71.7171955
  56.1786985  41.6987896  72.3572063  55.3883934  41.6466284  71.0673714
  69.8177767 103.6960888  -0.2756738  70.3399134 104.4310188   0.0460209
  69.5128822 103.2539368   0.5166471  41.4560652  23.7904310  33.8400531
  41.4393806  24.7464061  33.8855195  41.8826628  23.5977674  33.0051136
  75.8187008  13.7694275  74.9912882  76.6524410  13.5680342  74.5663691
  75.2471733  14.0498960  74.2764950   8.9036494   8.5646701  18.0326331
   8.2170469   9.2176998  18.1681383   9.3338865   8.4892190  18.8843584
   3.2615808  88.1425476  41.2406874   3.4268227  88.7436104  41.9670773
   2.3567733  88.3202648  40.9838390  38.2904935  44.1194677  77.9796457
  38.6583710  43.3831406  78.4682369  38.9860964  44.3768549  77.3745680
  89.3262577 106.2091446  32.2611809  89.7844124 106.8167686  32.8417969
  89.6065617 105.3416634  32.5529695 109.4588852  86.0564899  41.6726065
 109.5853710  85.2918911  41.1108017 109.2345715  85.6905746  42.5281858
   2.7127820  70.2380228  25.3265023   2.7017710  70.3130579  26.2806916
   3.3462280  69.5429039  25.1482058  27.5154591   0.6293677  23.8522911
  27.1690726   0.9013741  24.7021508  28.4474087   0.4788460  24.0105486
  25.6693625  19.6377838  27.5614405  25.1167417  20.2480483  28.0497217
  26.3728595  20.1820946  27.2078180  53.9505291 101.8627167  20.9330893
  53.3258581 102.4209595  21.3961124  54.0247250 102.2561932  20.0636625
  71.4921284  46.1899614  90.4933548  72.2481441  45.6033039  90.5157280
  71.7254448  46.9040489  91.0865498  37.6851439   4.6609184  29.4608307
  37.6359558   3.7050343  29.4509149  37.7930880   4.8856166  30.3850031
  22.3660111  -0.0102222  15.6630445  22.2116470  -0.0752756  14.7206163
  22.9889774   0.7107365  15.7545066 101.9708443  99.9929047  52.1154785
 101.3265133 100.6915092  52.2296047 101.5754986  99.4052887  51.4715528
 106.4412403  93.8281250  33.0429745 106.1339664  94.0584564  32.1661854
 105.8474636  93.1345081  33.3303213   4.3292502  70.5328703   2.1898238
   3.6544603  69.8731518   2.3500098   4.3167686  70.6629086   1.2415800
  66.9994402 103.3668613  25.4611397  67.0535755 103.2176971  26.4050937
  67.0186138 104.3192959  25.3676748 109.9830055  49.3565083   9.1895080
 110.6538868  49.4801521   8.5180479 110.2052879  49.9918795   9.8700392
  89.8691559  95.7215405  62.0631742  89.1238213  95.1509571  61.8756866
  89.5174217  96.3893700  62.6518297 106.7213249  78.8405561   5.6870759
 106.3855076  79.5693970   5.1652944 107.4137306  79.2282295   6.2223428
  41.9665289  50.2969742  80.1514816  42.4069881  51.1421728  80.0627518
  41.0522699  50.5204821  80.3258514  19.1113043   4.2400715   9.4533384
  19.6494651   4.2284620  10.2448440  18.3400202   3.7206870   9.6804798
  80.3749943  10.9581304  19.3099129  80.1675797  10.9841669  20.2440095
  79.7751522  10.3050470  18.9494908  16.0762405   7.3118806  38.8375807
  16.1683059   6.3983464  38.5670066  16.5162683   7.3557460  39.6865106
  96.8768311  93.0273724  25.2431631  96.3616848  92.4108410  25.7634974
  97.7862549  92.8236675  25.4615569  79.9752283  78.2572889   0.8805694
  79.3232965  78.6886835   0.3281984  80.3811359  78.9703941   1.3734733
  57.2447443  11.7232847  89.0753174  57.5479031  12.6310027  89.0559101
  57.7519512  11.2866902  88.3909416  49.5083809  39.6415138  25.2780509
  49.3139982  38.7239408  25.4691267  50.1827431  39.8808956  25.9137893
   6.0105890   3.8748991   5.2893484   6.4051020   3.9002860   4.4175988
   6.3595951   3.0772412   5.6870520  75.2420282  46.6224813  89.7199345
  74.9174452  47.1762180  89.0098286  75.9438992  46.1082411  89.3209743
  93.0484104  55.4945135   3.7874177  92.8664303  55.2303171   4.6892580
  92.7142334  54.7730732   3.2544246  33.2841969  19.4170547  32.2298670
  33.2044196  18.5713351  31.7887044  32.7961683  19.3083882  33.0461097
  16.2066197   3.8115183  13.0601585  15.6907821   3.7889016  12.2541606
  16.3451314   2.8906900  13.2817936  10.3493905  22.9647493  12.8872359
  10.7338369  23.2943869  13.6994994   9.4923002  22.6273346  13.1475806
 102.0931721  29.6454668  53.5148001 102.4557209  29.4518852  54.3792725
 101.1549664  29.7573018  53.6681080 102.9971218  89.2613506  31.7522621
 102.8082371  89.8213387  30.9992909 103.9501762  89.2877483  31.8372893
  63.9084101  86.1547279  30.2825618  63.1672144  86.7603493  30.2732754
  63.5418081  85.3229141  29.9826837  47.2238588  32.3228550  46.4208174
  47.9845428  31.7675257  46.2499285  46.4718485  31.7438078  46.2966585
 104.8255539  78.2636404  15.5776978 104.9369907  79.1368771  15.2018428
 105.4401112  77.7135849  15.0919080   4.7913501  61.8563414  10.2365780
   5.4371929  62.5474977  10.3829348   4.9435663  61.2321520  10.9461188
  33.5027647  32.1938348  24.9466777  33.8161612  31.5952992  24.2686152
  32.7795267  31.7256594  25.3637767  47.9136848  20.5727696  53.8902855
  48.2689667  21.0570765  54.6355724  48.2030010  21.0672235  53.1234455
  62.3950052  68.7130594  81.6168785  61.9147682  69.1148901  82.3408508
  61.7535973  68.6512375  80.9090614  15.1489413  22.3933339  31.6123533
  14.6305776  23.1911516  31.7173171  14.6768463  21.7325759  32.1190691
  63.1459999  85.3791904  74.9678230  63.7992001  84.7233963  74.7239017
  63.2697868  85.5020237  75.9090042  42.2908592  23.1246853  12.7317357
  43.1425285  22.6878428  12.7390099  41.6697884  22.4429202  12.9880488
  76.6992807  71.8679476  89.9279213  75.7602692  71.8881559  90.1125336
  76.9318867  72.7827692  89.7690678  85.2005386  85.1147079  39.5450282
  84.6667576  84.5174026  39.0210724  85.6826687  84.5433331  40.1427794
  82.1814537  71.2761450  75.4705524  82.7467442  71.8022537  76.0361433
  81.7739677  70.6429195  76.0614967  16.6614377  28.8643622  17.4070978
  17.4957454  28.8185072  16.9401300  16.3277555  27.9673696  17.3899639
  41.8467999   3.9906320  25.7827544  41.2312841   3.4938249  26.3217854
  41.2912226   4.5049861  25.1970863  67.1047163   1.5880850  23.5847759
  67.2472525   1.2687376  24.4758058  67.8394270   2.1796307  23.4219599
  73.9041853  50.6399536  27.8091836  73.3984232  50.4808521  27.0122361
  74.7736216  50.2898121  27.6149940  68.4403801  16.1955786  84.4189930
  68.4621859  17.0768023  84.7920895  69.3388510  16.0354066  84.1303158
   1.7406183 106.4539242  31.7982507   1.7690779 107.2592068  31.2815857
   1.5115972 105.7721043  31.1666679  63.3046722  27.2013998  86.5512180
  62.9823303  26.9163799  87.4062538  64.0716600  27.7380514  86.7511272
  77.7100086  56.2963438  80.6521034  76.9424677  55.7380104  80.7761002
  78.4436035  55.7685375  80.9675312  33.7190413  31.4562178  73.5753298
  33.2865071  32.1561432  74.0644598  33.5241628  30.6613350  74.0717316
  20.6819749  50.4876041  31.2011528  19.8251617  50.3716707  31.6118383
  21.3036513  50.4443502  31.9277072  90.7351666  73.7726218  92.9687494
  90.3990107  72.8865082  93.1030344  91.4538365  73.6643130  92.3458379
  70.9973621  34.9186969  47.4278450  71.3847876  35.4850698  46.7604971
  70.1543188  35.3257418  47.6274157  53.6814833  64.9361753  88.5410118
  53.9832115  64.8616123  89.4463539  54.3694973  65.4341030  88.0994892
  39.6536040  15.2532625  22.9736161  40.4083443  15.8145082  22.7958488
  39.9913645  14.3621421  22.8838706   7.1289301  87.4848652  20.9555006
   6.9228601  86.5520477  20.8953047   6.2755495  87.9165840  20.9953785
   3.4661719  94.5184231  45.4142761   3.7832677  93.6363888  45.2201366
   3.0054232  94.4290829  46.2485218  38.9469171   0.9237907  11.0320032
  38.7806773   1.2992463  10.1673472  39.3209171   0.0615095  10.8508193
 113.4998035  20.7631350  18.3108771 113.0051136  20.9060001  19.1177893
 113.2992744  21.5260959  17.7687395  51.6750765  59.1204071   6.4060110
  51.3038349  58.6237526   7.1352178  51.2082338  58.7986565   5.6347990
 110.1679230  97.9507256  16.5467894 110.2584934  97.8868771  15.5960262
 110.8102226  97.3299694  16.8908012  38.6750364  17.4342632  13.8606262
  37.9804134  17.4017191  14.5184040  38.4287429  18.1606197  13.2879341
  70.5205345  13.8684535  16.2490618  70.0857735  14.4274163  16.8930936
  70.4545259  14.3542171  15.4269254   7.3572069 105.6723976  26.7712212
   6.4312506 105.6835556  27.0135283   7.3676974 105.9416866  25.8527446
  75.0906754  17.5721884   8.2449591  74.3294191  17.1596944   7.8368276
  74.7435999  17.9872310   9.0345854   0.9971637   6.4070648  32.2580075
   0.5961697   7.1743393  32.6663280   1.8747705   6.3648015  32.6378131
  26.3369656  52.7553797  16.2861550  27.1700907  52.5260496  16.6979086
  25.9850931  53.4580326  16.8326843  42.6315928  41.3092089  75.5001879
  43.5144854  41.5011311  75.8162451  42.7671957  40.7473898  74.7371674
   6.4647985  54.8595905   8.7143487   6.3082922  54.1778374   8.0609304
   5.6148791  55.2860689   8.8238114  43.5358953   9.9125630  49.1929626
  44.0900946  10.6589782  48.9650249  42.6549244  10.1793325  48.9303684
 102.8127289 100.2796745  29.4095206 103.1309223 101.0056400  29.9461365
 102.0705795  99.9265003  29.9001551  44.2168951  14.3990695  44.2933607
  44.8853874  14.2368591  44.9589682  44.1831160  13.5885251  43.7853146
   4.0254200  26.2170339  22.6953316   4.9100426  26.5633821  22.5782156
   3.4918940  26.7059326  22.0687866  63.1027889  68.0446386  88.5423374
  63.8022089  68.5853386  88.1753445  62.9129887  67.4021244  87.8586864
 111.5170765  85.4459953  34.4955087 110.6789970  85.7327747  34.1327119
 111.3269520  84.5976543  34.8960114  11.0394478  81.6278934  28.1198597
  10.1830220  81.2985611  27.8472686  11.4522350  80.8854485  28.5610008
  94.1071987  64.0029287  83.2250118  93.9813328  64.9134016  83.4922600
  94.7054768  63.6418247  83.8791561   7.6907378  37.3327327  26.0544705
   7.8251332  37.2619796  25.1093984   8.5441959  37.1235967  26.4340806
  18.9644372  31.9838047  21.2589574  19.7016048  32.4651647  20.8833146
  19.1184032  31.0737681  21.0052705  25.3654981  11.0335898  10.2942991
  25.2773356  10.4191887   9.5656222  26.2726331  11.3350892  10.2449548
  39.7020555 101.4484692  65.2126312  39.6905398 101.2417412  64.2780924
  39.5565057 102.3937702  65.2506304  76.2341976  86.2804031   6.5537745
  76.0834074  85.5015755   7.0894277  75.9027863  86.0432434   5.6876582
   1.4420870  26.3445640  40.7050848   0.8681567  25.7937574  40.1726866
   1.2077174  26.1318326  41.6084385 101.3944721 102.0861626   5.3635871
 100.6919861 102.6147270   4.9849552 100.9514332 101.3113499   5.7094395
 112.1634197   1.6781838  37.9535508 113.0212021   2.0377752  37.7274346
 111.5549564   2.4035749  37.8127956   3.1573644  11.7186189  15.2036512
   3.1995660  11.2841749  14.3517649   4.0645850  11.9544864  15.3974283
   4.1995585  86.2749290  14.8734593   3.6821952  85.7577896  14.2560959
   5.0456560  86.3886166  14.4405329  10.9208143  20.0976515  23.3346295
  10.3767335  19.8842621  22.5765562  10.6483734  19.4743419  24.0080476
 102.2465324  81.8514633  16.2701249 102.6477432  81.3468647  16.9776869
 101.3104057  81.8411541  16.4695680  38.7204671  12.4111688  39.5718098
  37.9148340  12.8579676  39.3118906  38.4684539  11.8851566  40.3307772
 105.6515789   8.9594555  36.6692376 105.9148788   9.3368810  35.8299208
 106.3178253   9.2608207  37.2869158  95.5898285  31.4704514  87.6672363
  94.9085903  31.8824935  87.1358585  96.0877419  32.2036219  88.0288601
  36.8080091  31.7010379  51.6486454  36.3267159  30.9395099  51.9721651
  37.6850891  31.3674879  51.4596796   6.9368231   1.2477905   1.7296413
   7.4054104   0.5971407   1.2068483   6.2693304   1.5949130   1.1378714
  91.9735527  92.1549988   2.6347610  91.5708733  92.6801586   3.3263457
  91.3924026  91.4006233   2.5377262  53.1353760   0.0899335  17.7971756
  52.8098679   0.3600027  16.9384921  53.3715343   0.9091567  18.2323039
  13.0213654  19.2260838  19.2285645  13.0632710  19.5247853  20.1369977
  12.2753143  19.6960735  18.8560736   2.5701723  31.1425543  13.6215150
   2.5029120  32.0932794  13.5330260   1.8969144  30.7991123  13.0341470
  38.9048529 107.2930050  34.0771365  38.0452037 106.8857956  34.1839814
  39.3831420 107.0546722  34.8712826  70.0663996  52.4803209  91.4301491
  70.7415009  52.5773764  90.7585430  70.3185701  53.1001663  92.1145630
  66.2516499  19.8907268  20.7509756  66.8540144  19.2300260  20.4091239
  65.9005690  20.3210258  19.9713492  27.5763607  26.5642142   8.0867445
  27.5003839  26.5087795   7.1341759  27.0363188  25.8441186   8.4124011
  51.7174196  67.6929903  70.4943132  51.7493200  66.9162178  71.0527372
  51.1286354  67.4502420  69.7797251  65.7215929  36.7458725  88.4480572
  66.0420084  36.1821198  87.7439690  66.0918236  37.6067257  88.2528877
   3.0798054 100.9152031   8.5160148   3.3238569 101.2588406   7.6566052
   2.2140667 101.2867069   8.6854762  48.5100317   8.8511127  22.8597999
  49.3283272   9.1326112  23.2689261  48.7247229   8.0156744  22.4448514
  33.9220524   5.4939568  11.1785603  34.1286516   4.8028344  11.8077648
  34.6962214   5.5468768  10.6181216  24.3823481 104.8381233  15.9745169
  25.1523852 104.4005489  16.3375592  23.6392331 104.3817234  16.3691151
  89.3845272 105.6719494  21.1181498  89.6247292 105.5170250  22.0316768
  89.7322750 104.9145794  20.6473064  91.3141632  69.3182182   2.9431844
  90.4855442  69.1310501   3.3843040  91.2229061  70.2196836   2.6345444
  33.6719465  81.3308811  20.1896548  33.7239456  81.1872196  19.2447257
  34.4273067  81.8836975  20.3898025  93.5058403  88.7625694  31.3998556
  93.3632088  87.8186989  31.4705777  94.2122936  88.9451313  32.0193982
  45.0057077   7.7551377   9.0763777  44.1651201   7.9775095   9.4766235
  45.4116297   8.6008859   8.8861954  42.8284693  16.3371158  12.2073925
  42.3160076  16.7351401  12.9110944  43.7394428  16.4803731  12.4639714
   7.6743132  76.7675877  32.9268932   7.9334122  77.2045326  33.7381744
   8.4725010  76.3363791  32.6216292  40.6624842  14.7752559  58.5772228
  41.1942339  14.9985874  57.8132915  41.0315704  13.9505064  58.8931274
  54.5010138  70.0686026  86.1345196  53.5714769  69.8716211  86.0187912
  54.9520493  69.4253492  85.5876923  26.6510615   0.1304886  28.8292289
  25.7868037  -0.0677898  29.1897583  27.0819506   0.6469414  29.5102882
  58.7324429  16.4583969  10.3296208  59.4501829  16.9787431  10.6906271
  58.3814669  15.9805632  11.0810995   2.7215573  75.2990294  34.2706871
   2.8172228  75.8817959  33.5173845   3.4363467  74.6691036  34.1784811
  16.3799667   1.9375721  29.8004007  16.3828433   0.9803846  29.7964263
  15.6206834   2.1725903  30.3337765  17.4050212  30.4067612  50.1637411
  18.3232033  30.3763199  50.4325294  17.0836222  31.2420082  50.5032969
   2.9671133 106.0055542  19.6847868   3.2447380 105.2007198  19.2472911
   2.3982583 106.4397430  19.0490854 100.0530243 104.5610714  53.1627035
 100.7582378 104.7488689  53.7820911 100.4775143 104.0727425  52.4573088
  55.1860380  10.5856121   7.3172760  54.7758579   9.9079669   7.8546590
  55.3618336  11.3016224   7.9277319  33.9427662  22.2554874  87.9348278
  33.7032008  22.0783854  88.8444805  34.8233938  22.6269722  87.9870415
  81.4029408 104.9376392  42.4254513  81.1101055 104.0605736  42.6728916
  82.1455479 104.7861576  41.8408060  42.7783632  26.3966060  16.2777185
  43.4617615  26.7444801  16.8505907  43.2557678  25.9973931  15.5504310
  56.7984915  88.9204597  80.0835991  56.9117594  88.4998417  80.9359360
  56.3346863  89.7348785  80.2781487   4.2915761 104.6490574  32.4056244
   4.7532454 104.6781349  31.5676212   3.4400940 105.0467873  32.2239089
  35.3265786  24.7136116  38.2229376  34.4458604  24.3470168  38.1443405
  35.1845407  25.6487942  38.3695459  82.3837566  99.6296978   1.8031065
  81.5886307  99.3336105   1.3600127  82.1619320  99.6066856   2.7339631
  40.2245665  21.6459084  92.9612446  39.3457818  21.8692422  93.2679939
  40.3209972  22.1273756  92.1395874  94.1176987  50.8922338  90.1653481
  95.0239277  51.0005283  89.8768330  93.7943459  51.7858744  90.2797318
  75.1452112 102.2638893  47.6360369  74.8588562 102.8890419  46.9701433
  74.9962330 101.4058304  47.2388315   2.5557336  75.5987930   4.1007096
   2.3799950  75.2471685   3.2279500   2.4590506  76.5458918   4.0012890
  95.7470417  95.7196903   9.3865228  94.8162651  95.7948208   9.5968902
  96.0706902  95.0358772   9.9729377  99.2376900 100.2613831  87.6931095
 100.0985527 100.5628204  87.4027920  99.2301178  99.3261623  87.4893188
 110.3892708  88.2318211   4.4219550 109.9069500  88.3708477   3.6069247
 109.7204208  88.2702541   5.1056135  27.5399351 106.9932270  11.1672664
  27.9353118 106.1978817  11.5241063  27.7165604 107.6648426  11.8260276
   6.8302387 103.6157608   6.3837695   7.1617126 104.4742393   6.1203665
   7.4427652 103.3186531   7.0566523  30.4976916  21.8814397   2.2060959
  30.5068326  21.8296218   3.1618488  29.7207093  21.3861656   1.9467996
  97.2976208  89.7245789  30.7029915  97.5950432  89.7869492  31.6106701
  97.1568966  88.7885094  30.5608487  13.7716568  15.5175042  22.6094604
  14.3714523  15.9567094  22.0064878  14.2872703  14.8019004  22.9813290
   1.8584114  27.0372820  28.0589318   2.6685128  27.1686435  28.5515904
   2.1034770  27.1981168  27.1477199  76.3822651  43.2418489  16.0147488
  75.4493904  43.1441593  16.2056279  76.7995214  43.2852316  16.8751228
 103.1020546  97.8885937  18.9565909 102.8596497  97.6187897  18.0707669
 103.6758709  97.1900082  19.2711484  66.7153978  81.7786312  88.8030720
  66.6697693  82.7347088  88.8105869  66.0231113  81.5105438  88.1988335
 111.9384480  88.9720154  25.9679818 112.4481201  89.1576004  25.1792955
 111.0264874  89.0444851  25.6863856  75.5499125  69.8571539  61.7766619
  75.9593439  69.1495085  61.2788296  76.2484360  70.1880598  62.3412895
   5.6876880  22.6647663  13.2504892   5.4784399  22.7987361  14.1748810
   4.9009311  22.2622919  12.8827143  41.2044621  19.8591459  38.4954333
  40.3213644  20.0624108  38.8037419  41.3500404  18.9527190  38.7664104
  15.3653204  16.2518597  33.1349897  14.7072959  16.4886642  33.7885618
  16.1124241  15.9438312  33.6480069 104.4234753 101.5591812  36.9759536
 105.2961254 101.7166042  37.3364139 103.8244438 101.8813229  37.6494646
  44.8855495 101.2688732  21.2676477  44.2285395 101.8181515  21.6952658
  45.3597832 101.8677521  20.6908679  86.8133831  92.8382397  39.7032499
  87.3658085  93.4911633  40.1330805  86.0798073  92.7116585  40.3049707
 100.9943008  78.9650059  11.9958901 101.5853405  79.4490480  12.5726056
 101.5671921  78.3740282  11.5072465  37.5868201  27.4556732  81.8434811
  37.6500010  27.4289703  80.8887482  36.6590166  27.3074436  82.0263577
  74.5930767  27.7128267   2.1508798  74.3442297  26.9882512   1.5770380
  74.1297674  27.5393796   2.9703248 111.6613865  87.4040794  44.1452551
 111.8096733  87.8310966  43.3015156 112.3600864  86.7530632  44.2102909
  53.5765743  77.3945284  74.0684557  52.9978275  76.6353416  73.9983511
  54.3317270  77.0752192  74.5624352  27.9698038   0.2207002  49.4994879
  28.8429880   0.1684344  49.1108370  27.3984814   0.4682890  48.7724876
   3.0405417  49.8399782  88.4389687   2.2092028  49.6608210  87.9996395
   3.6771178  49.2922974  87.9795742  24.5329022  32.6319718  40.0451851
  23.9121008  32.7703643  39.3298602  24.3000603  31.7747927  40.4019213
  72.5276518  99.2865467  42.9619122  72.6893854  99.6402740  43.8365269
  73.3967972  99.0611553  42.6302195 107.9884529 107.1052837   8.8915801
 107.8470039 106.9573212   9.8266381 107.4773216 106.4202213   8.4606791
 107.0237446 101.7836094  19.7006416 106.2372208 102.0239544  19.2109120
 107.4047852 101.0607910  19.2020714  77.8615952  46.3438368  92.4823284
  78.1433296  45.6634951  91.8707752  78.6094332  46.4645147  93.0674839
   7.4069434  92.0834351  15.9849048   6.4748466  91.9554043  15.8087337
   7.4296182  92.6056671  16.7867732  56.3385677   8.3959085  24.7440124
  56.3647318   7.9437459  25.5872774  55.7066107   7.8984267  24.2249966
  62.2287464  56.6122484  91.0175705  62.5547218  56.4606476  90.1304436
  62.1980858  57.5652361  91.1018753  13.9513290  78.7642574  33.5115314
  14.4607663  79.2619419  32.8719878  13.2153308  79.3363428  33.7289238
   6.3810927  89.1468430  11.1275327   5.5769151  88.6282063  11.1040986
   6.1128449  89.9881268  11.4969993  66.1488771  26.8066931  26.6750693
  65.7679510  27.1677732  27.4755359  65.5298567  26.1308193  26.3989568
 103.6301422 102.1212769  26.6572309 103.7643433 102.0269394  27.6002717
 103.3928490 103.0411434  26.5399122  22.4402642   5.2241129  12.2014213
  21.7837119   4.8946717  11.5877128  23.0016851   4.4695565  12.3794210
  65.9161663  19.8805261  42.1956825  66.7817020  20.2587175  42.3507595
  66.0877275  18.9568329  42.0124102  38.5840893  24.9893546  29.4590616
  38.4742427  25.0442910  28.5097742  39.2408705  25.6551194  29.6630979
  68.9765167  40.0126696  17.1236849  69.1159296  39.2500710  16.5622246
  68.4168291  40.5918217  16.6064143   3.3615822  87.3212147  17.3951459
   4.0555590  86.9909859  17.9657376   3.5771623  86.9733715  16.5298367
  52.7038813  37.6574612  21.0783291  53.4955072  38.1932569  21.0284686
  52.5860786  37.3209548  20.1900077  37.6065326  28.6888981  25.5936432
  37.1815634  29.4841099  25.9149981  38.3565545  28.5662460  26.1755848
  62.8624916  66.1642647  74.8050928  63.4232569  65.9286928  75.5441999
  63.1268072  67.0559216  74.5785618  46.2027979  29.0429807  14.9773049
  45.4330349  29.1181874  14.4133520  46.6713953  29.8685217  14.8543072
 105.7000637   1.0761935  49.0444708 104.9272442   0.5499283  49.2494488
 105.3988743   1.9819592  49.1158962 107.8284836  70.4932499  27.2587037
 108.4605408  71.1817551  27.4653459 107.8357029  70.4404831  26.3029861
 112.6147079  96.3425350   5.8378386 111.8416214  96.7025375   5.4031229
 113.1807423  97.1000862   5.9859556   1.1887805 103.9394188   1.2395418
   0.9000114 103.9602375   0.3271765   2.1434620 103.8933945   1.1876106
  63.1323099  26.1500096  59.1105080  62.2720051  26.0427713  59.5162344
  63.2585859  25.3492284  58.6015511   3.3328056  94.2647648  89.5682240
   2.8011882  94.7229099  88.9172935   3.8875377  94.9465656  89.9472427
  29.2139196  59.9990988  29.6764445  29.0513754  59.2857456  29.0592432
  29.3664670  59.5612049  30.5138278  42.9924202  20.1117706  20.0214291
  42.6260042  19.5401907  19.3466949  43.1213236  20.9512877  19.5800388
  22.4611092 106.7712402   9.5297438  23.0999613 106.8457127  10.2386546
  22.9651427 106.9422150   8.7341624  36.5577412   5.2420568  34.5421886
  37.0035911   6.0813534  34.4280386  35.6492805   5.4771709  34.7310066
  95.4706669 100.6095314   4.8629731  95.8105659 100.0798130   4.1417974
  96.2102509 101.1565208   5.1276672  51.6252947  29.1634250  23.1331420
  51.0306168  28.4270620  22.9904342  51.1143637  29.9348760  22.8880954
  70.9631205  69.5274162  84.9713898  70.0582266  69.5614338  84.6611691
  71.0529423  68.6540270  85.3526402 108.3661747  96.0149384  27.9803109
 109.0145874  96.2927055  28.6273289 107.7347565  96.7337036  27.9501915
  79.5835829  50.9048796  78.7548161  79.4527388  50.0853729  78.2778263
  79.3246222  50.7026911  79.6538687 106.4023304 104.7640324  27.5375390
 106.8518162 105.0790691  26.7533493 106.6967297 103.8584423  27.6348305
  59.3855762  92.0482254  89.8657703  59.2810774  92.7197552  90.5398273
  58.5480165  91.5849209  89.8573685  67.2211742  42.8514576  92.4722004
  66.5908670  42.3209286  92.9595184  66.8494463  42.9172611  91.5925789
  65.4260826   1.7698005  12.9711974  65.7304907   2.6602235  13.1464541
  64.4968748   1.7848618  13.2004952  43.6862850   9.4863570  35.8591104
  42.8581810   9.6250266  35.3994966  44.2263699  10.2367532  35.6112289
   1.3563626  71.3686991  45.7402563   1.8839040  71.2881994  46.5348959
   1.9169411  71.8450880  45.1278496  86.7310429  73.1193590  83.5166836
  86.2919331  73.1134844  84.3671989  87.4715900  73.7144756  83.6335754
  86.1880207 101.0537529   0.7766726  87.0586777 101.3942623   0.5711722
  86.2434864 100.7935524   1.6961583   5.3974038   4.9188048  52.1809769
   5.4403466   4.0061849  51.8954706   5.0436360   4.8754516  53.0693436
  14.0801764  91.6264439  20.8360219  14.4041038  90.8261395  20.4227352
  13.5390532  91.3184547  21.5630412  18.7110078 101.0960579  53.6385298
  18.4028232 100.3936100  54.2110920  17.9898024 101.7251968  53.6217833
  53.5497046   5.0733382  25.1896501  53.7406540   5.1756573  26.1220121
  52.7233982   4.5907474  25.1659513  90.9045315 103.3492374  25.8331156
  91.4527607 103.9944935  26.2795639  91.3107014 102.5070572  26.0380292
  84.9571991  72.7306366  90.2457428  84.6201134  72.0050383  90.7712078
  85.8734035  72.5047350  90.0852489  26.7835093  31.6866326  22.4216080
  26.5247631  31.4983797  21.5194750  26.6547227  30.8592272  22.8853393
  10.0025284  96.8620300   8.0828261   9.3601298  97.3577690   7.5750899
  10.8471930  97.2336292   7.8285021  86.3767052  85.6189156  86.6998482
  86.8163681  85.8708572  87.5119114  86.3149452  86.4320946  86.1986828
  37.4709916  42.0741749  56.4265013  37.1752906  42.6471567  57.1339464
  38.3957624  42.2929668  56.3117647  58.2724094  12.0286107  14.3216491
  58.4691858  11.9210339  13.3910906  58.7625217  11.3283968  14.7526050
   2.1355754  22.2531271  16.3971961   2.3746599  21.3277102  16.3454819
   2.6953068  22.6068449  17.0884395  73.8128805 100.7868767  16.7476404
  73.0038500 101.2984180  16.7529595  74.4263029 101.3034248  17.2702467
  52.6392174  11.6436410  24.6542287  53.0273008  12.5173044  24.6058965
  53.3471155  11.0844862  24.9743247   4.2015490  91.4286327  31.7864323
   3.5214198  92.0849323  31.6350055   4.0455201  90.7630348  31.1164618
  97.7220249  87.5978947   1.8105811  98.6396694  87.6996422   2.0631592
  97.2347260  88.0786896   2.4796221  90.9865379  61.1075401  90.1761055
  90.2851009  61.6844559  90.4784012  91.6931629  61.7017174  89.9233913
 112.9154778  30.8040094  35.8545899 113.2656956  31.6206431  35.4986501
 112.2463322  31.0827088  36.4797306  18.8582206 101.5525818   0.9754742
  19.4336271 100.7876778   0.9684629  19.1270089 102.0474052   1.7495117
  93.9097977  75.3849745  51.9964743  93.0651760  75.8275318  51.9128752
  94.5368481  75.9883499  51.5977573  33.8071632 104.2725468   1.7986533
  32.9374766 103.8852596   1.6991982  33.8201070 104.9962902   1.1723521
   9.2867351  15.4495752  35.9319186   9.8482764  16.1081076  36.3408661
   9.3103808  15.6608450  34.9986243  22.8746200  11.6093671   3.7310606
  23.3464527  10.7883072   3.5915515  23.0566883  11.8383622   4.6424577
  38.5278320  10.8245409  17.5637448  37.7691031  10.7060909  18.1351745
  38.4518695  11.7250907  17.2483528  37.5715470  45.9241104  92.2265148
  38.2008696  46.6161060  92.4298191  36.8169856  46.3862801  91.8614578
   7.9524356 106.1492062  12.3061824   7.5837815 105.2659225  12.3180032
   7.8194809 106.4522362  11.4080012 100.0417137 103.5849953  27.9805040
  99.6594524 104.4538116  27.8569078 100.4850006 103.6366177  28.8272977
  27.3466992  19.3628860  37.1801257  27.0894313  19.7111464  38.0338001
  27.4090028  18.4174359  37.3160434  71.7787170  99.2874622   0.8014502
  71.5096188  98.6805153   1.4909658  72.3956347  99.8798847   1.2311999
  14.1960561  12.9453909  59.6580172  13.4396410  12.4053180  59.8869038
  14.9139500  12.5850546  60.1786137  33.4370208  43.3745480   9.6469873
  33.7461829  44.1758442  10.0695705  33.3188200  42.7545357  10.3666008
   5.2478713  16.4068484   5.7858270   4.4493848  16.7891788   5.4218554
   5.8094150  16.2561083   5.0254470  70.9461498  60.6262636  82.1147346
  71.1794806  59.7343111  81.8574238  70.2393579  60.8707476  81.5173149
  98.3029652  73.1120014  72.2883511  97.8365231  72.4948168  72.8520393
  98.9754009  72.5831175  71.8589973  61.5941191  12.9894900  34.5820832
  61.9242048  12.1391296  34.2919779  60.7332611  13.0653477  34.1705012
  66.3336611  19.5487845  23.4212923  66.9204903  20.2158356  23.7775302
  66.4480448  19.6109068  22.4729824  87.5233746 102.7938652  73.8760233
  86.9640064 102.9068851  73.1075382  88.3179760 103.2854748  73.6682749
   1.1960901 101.9824982  12.3177135   0.5057836 101.3203907  12.2814798
   1.9255517 101.5946960  11.8342662  53.7459755  28.5336661   3.5393113
  53.9792824  29.3579721   3.1123245  53.2861519  28.7983680   4.3360075
  76.3209820  62.9772091  88.6045742  75.5621099  62.5050497  88.2619190
  76.6422796  63.4863949  87.8604412  12.5928187   3.4397048  45.0770712
  11.6944635   3.1219345  44.9864531  12.5739098   3.9916807  45.8588600
  73.1028509  30.1974511  11.4060330  72.2291470  30.4926419  11.6624248
  73.3675909  30.8045840  10.7149959  50.2902603  13.0273974   9.0162367
  49.5735264  12.9376507   9.6443057  50.1096821  13.8508177   8.5628027
  62.5147343  45.1228237  12.2576082  62.4505615  45.2661514  11.3133776
  61.6094971  44.9995279  12.5432169  39.7054386  23.8977718   9.1052502
  40.5861664  24.2599440   9.0083885  39.3944836  23.7808442   8.2075489
  67.0991802  19.0235996  73.9275360  67.0258188  18.3391094  73.2624578
  67.4134493  19.7903633  73.4484339  14.3702936  62.3300171  15.7271147
  14.4985425  61.4112473  15.9630013  13.7303150  62.3075533  15.0156689
 100.6920624 104.3966293  12.4333179 101.1907101 103.8979912  13.0805779
  99.7976398 104.4044113  12.7741694  17.3869753  84.1218281  14.7034979
  17.9831278  84.0526009  13.9578152  16.7218995  83.4527874  14.5413518
  40.1146269   4.8754835   0.1448062  40.8495522   4.3346670   0.4339949
  39.6064401   4.3020391  -0.4289026 105.3752613 106.7893791  28.8333845
 104.4787502 106.5207195  28.6325645 105.9143829 106.0463905  28.5622120
  92.6952457  62.1669626  86.3670349  93.1437492  61.8822622  87.1632862
  93.4006023  62.3381948  85.7430267  19.1656065  33.6858439  24.5012355
  18.7293148  34.1801095  23.8072729  18.6267757  33.8367534  25.2778435
  43.6579514  31.1559200  39.1532731  42.9197311  31.7428923  39.3167448
  43.7150526  30.6173491  39.9425220 110.0798893 105.8271599   4.3088871
 110.7333660 106.0379505   3.6419713 109.2826271 105.6415081   3.8127765
  33.1189132  24.8618722  10.5094516  33.6638808  24.1469598  10.1806009
  32.7911043  25.2951670   9.7213972  90.9537220  67.3965979  68.1595612
  91.1640263  68.2602835  68.5145950  90.0413227  67.2505951  68.4094429
  47.7967501   3.6210528  11.4044821  48.1326246   4.5040298  11.2502933
  46.8586254   3.7436372  11.5498340  34.1289544  32.6655102  52.4853849
  35.0485349  32.5118923  52.2685719  33.7030554  32.8026962  51.6392040
  92.8802299 103.0677605  84.6881485  92.3300076 102.9797935  83.9098454
  92.2597313 103.1689167  85.4099369  82.5108814   1.2149789  26.7043042
  81.7432880   0.9502894  26.1973810  82.9784393   0.3974630  26.8754411
  83.6482620  27.2491407   6.3027000  84.2717075  26.6946197   5.8336061
  83.3092403  27.8458667   5.6354558   6.8588185  61.7897558  80.9636021
   6.6353422  61.4071321  80.1151371   6.1850607  62.4532652  81.1120510
  76.2104273  53.2630873  19.4494283  75.8062840  52.8079700  20.1881886
  76.0781860  52.6759958  18.7050712  40.1580667  99.3029881  33.8376617
  39.4992328  98.6147308  33.9297438  40.3308725  99.3448353  32.8971219
  26.8401289  36.0930991   3.8532749  27.4973607  35.6369042   3.3277634
  26.0725760  35.5218506   3.8254949  45.7741213  22.1842504   5.2129877
  45.8423471  21.3199949   5.6187451  45.4767036  22.0070696   4.3205860
  73.5593843  74.0678596  83.8536644  73.6426783  73.1144524  83.8360405
  73.9823771  74.3301630  84.6712875  84.3868065  81.6795635  33.4350610
  84.7745609  81.0679626  32.8091025  84.1215992  81.1308384  34.1731668
  72.4927187   1.6221230  27.1552324  73.1884384   2.2773030  27.1010017
  72.6294041   1.1971401  28.0019522  53.8045502  16.9222951  29.5415020
  54.5522594  16.6667831  30.0817609  53.6711073  17.8490961  29.7401571
  30.2352047  34.3582082  17.0287097  30.8680868  33.6467218  17.1260715
  30.1590133  34.7327518  17.9062879   7.9098773  51.7881536  60.6837749
   8.4321886  51.4343309  59.9638891   8.2400483  51.3396120  61.4622545
 111.8377304 103.2393932   5.3219658 112.0491886 102.3271751   5.1235092
 111.8033886 103.6687279   4.4671410  64.7699499   1.1165536  18.2709050
  64.9157381   1.8535611  17.6777804  65.2702665   1.3384862  19.0561819
  63.9423513  31.6372156  33.7054896  63.5844755  32.5248194  33.6876583
  64.0032291  31.4221692  34.6362329  18.6140525  83.4252644  46.6711092
  19.0493226  82.6422977  47.0083475  18.1504512  83.7858868  47.4269247
  25.4360223  28.9634943   3.0455115  25.5023360  28.5555649   2.1821299
  25.6174254  29.8899293   2.8872624   6.8584585  26.9406128   7.7981740
   6.0600233  26.4144683   7.7545249   7.2678083  26.8263054   6.9405037
  94.3112469  65.0122595  76.3658762  93.4503555  64.6202803  76.2194157
  94.3450165  65.1704597  77.3093128  37.9097676   5.0056940  25.2437472
  38.7940049   5.1520503  24.9076891  37.3524976   5.0193596  24.4656110
  28.1280708  26.4958358  33.8318849  28.7716031  26.8512058  34.4449186
  28.4165192  26.8079257  32.9741955  89.4262409  36.7529869  91.9037819
  88.5107708  36.6272664  91.6541195  89.8956585  36.8109822  91.0716057
  52.5607109  10.4945099   2.1497008  53.2208776  10.5391407   2.8413832
  53.0460262  10.6706715   1.3436806 107.9332352  90.9534454  33.7920022
 108.7149715  90.4632950  33.5373259 108.2211304  91.5007114  34.5226502
  81.6332436   8.3863282  27.2766805  80.9054089   9.0075725  27.2999859
  82.3434639   8.8653898  26.8496919  33.1042933   0.1802867   0.5338852
  32.4533558   0.2483870   1.2323634  33.9182377  -0.0420418   0.9858789
  24.7557116  34.1736317   3.3686313  23.9594007  33.7173986   3.0966583
  24.5993924  34.4028664   4.2847353  37.8831100  33.3551455   5.9207433
  36.9317842  33.4598875   5.9052819  38.1910586  34.0493155   6.5034324
  44.5585203  41.7521334  11.0766494  43.9027214  41.0769558  10.9026027
  45.3194332  41.4856195  10.5606854  39.1528106   4.1607103   2.5751624
  38.9933157   3.2229051   2.6815310  39.5206714   4.2428145   1.6952938
  26.2497067  17.0496929  27.2444725  25.7771707  17.8454387  27.4888706
  25.7451034  16.3399220  27.6417542  78.8721991  94.4637680  89.7181892
  78.6794424  95.4001999  89.7647190  78.0965900  94.0409756  90.0868416
 110.5259228  92.3993301  13.3819997 110.2326870  92.1499252  12.5056183
 111.1724472  91.7336369  13.6167252  25.2467394  97.7424431  29.2469573
  24.8292232  97.1789169  28.5955381  25.4202080  98.5600471  28.7804246
  83.6683655  74.7503805  66.9524670  83.9580536  74.0414762  67.5267267
  84.2658138  75.4732370  67.1442080  37.6741886  31.9540167   0.7857597
  37.9674006  31.0673785   0.9958338  38.1652331  32.5168157   1.3843960
  61.5493107   3.8417715   6.9881624  61.4610100   3.2702968   6.2253702
  61.6640329   4.7175649   6.6193038  72.9690695   9.1432589  22.9063582
  72.0992708   9.4050264  23.2082891  72.8289175   8.8340366  22.0113897
  73.5913515  23.7075090   5.1889098  74.4521809  23.9318514   4.8355317
  73.7551260  23.5095954   6.1109936  53.3782864  41.1617327  31.8948698
  53.5562611  41.9866323  32.3466396  54.1379786  40.6130552  32.0899558
 104.9476814  58.4841681  67.8859615 105.8448124  58.5747671  67.5647306
 104.9468231  57.6544523  68.3632517  71.9441986  18.7036216  52.0515776
  71.8339920  18.2978201  52.9114676  72.5712156  18.1394267  51.5990686
  57.8142595  65.8977175  80.2981663  58.0718279  65.0764847  80.7170486
  56.9504786  66.0916471  80.6621742 104.1803265  71.9905281  74.2203331
 104.7592831  71.3338709  74.6074295 104.5887566  72.2054100  73.3817387
  94.2015171 105.4916573  81.8847847  94.8324680 105.5124855  82.6042938
  94.6026802 106.0254097  81.1989117  39.6603155  43.3248663  13.2347429
  39.0684080  42.6774549  13.6178088  39.7953868  43.0238390  12.3362052
  77.0410824  91.0153675  78.0358744  77.0953798  91.0077000  77.0802450
  77.8098392  90.5228615  78.3234119  43.0251598  20.0074697   3.2270101
  42.3431778  20.4706550   2.7406073  43.8397837  20.2491426   2.7863055
 100.1524925  94.0420246  78.8531923 100.3251076  93.3650494  79.5075226
 100.2080441  93.5841465  78.0144453  16.8815506  18.9414120  33.8505745
  16.4893985  18.9618182  32.9776287  16.1499560  18.7499535  34.4373822
 111.9154549  95.3037739   2.9394954 112.2807789  94.7033024   3.5892612
 112.6110554  95.4058838   2.2899283  40.6341410  13.2446110  14.8696160
  40.6998920  14.1520524  14.5721984  39.9082565  13.2490623  15.4935610
  50.0605202  68.8557386   3.8449991  49.8195839  67.9403925   3.7024420
  49.3468523  69.3557453   3.4488928  89.5963478  69.4934559  35.6965995
  90.3868294  69.5165730  35.1573110  89.2544651  70.3867245  35.6588888
  81.4123631  71.0463381  18.6970901  81.1064625  71.1723089  19.5953047
  82.0249653  71.7668486  18.5494304  66.4347649  66.8119669   9.4977093
  67.3216343  66.4636374   9.5891607  66.5540838  67.6635313   9.0771991
  69.7779846  11.3713479  21.9165206  70.5810499  11.1901891  21.4281535
  69.4378185  10.5068970  22.1472645  45.8442736   8.4670663  92.3295784
  46.5643597   9.0609390  92.1173859  46.0532045   8.1403595  93.2046986
  69.9504995  73.6493397  38.9745092  70.0712442  73.8557673  38.0476642
  70.5107021  74.2747545  39.4341373  21.2150407  24.3745661  67.1583652
  21.5123940  25.2731276  67.3012018  21.8922472  23.8312554  67.5613976
 101.6273689  69.8671865  25.9835243 102.1905231  70.6272030  25.8370090
 100.7486439  70.1734114  25.7592654 111.6123867  96.6297150  83.0804539
 110.7256508  96.6708183  82.7223587 111.5535831  95.9935856  83.7932777
  53.8797855  79.1026688   0.3508832  54.7214222  78.9366102  -0.0737361
  53.7904072  78.3958006   0.9900851 108.1733704  89.1482449   6.7906499
 107.4296093  88.7441444   6.3437134 107.8841591  89.2443085   7.6980418
 107.9819393  70.1174212  33.2850146 108.8598061  69.9624491  33.6336732
 107.6303101  69.2418861  33.1236672  98.7193680  46.6589928  25.9082580
  98.2413960  46.1249399  25.2737832  99.5022964  46.1469173  26.1108160
 109.6946716  60.6494379  18.4240317 108.7649155  60.8422089  18.5449851
 109.7249508  59.7060442  18.2648766   5.7665771  62.5367546  15.2446675
   6.3919425  63.1833601  14.9174786   4.9343774  62.7826262  14.8406601
  39.5698786   4.7478637  88.5441113  39.7637701   4.1890895  89.2967129
  39.6312046   5.6398404  88.8859367 108.6050606  63.9152765  16.3433790
 107.7379799  63.5821533  16.1122286 109.1827202  63.1563807  16.2620139
  31.6212106 102.7025127  84.1389656  31.1233401 102.3558140  83.3985901
  32.2824526 102.0337486  84.3171310  27.7397919  84.7944164  89.7749805
  27.3027682  85.2404308  89.0495110  27.9460335  85.4928684  90.3961563
  19.9003351  12.3351300  74.3047476  19.1560948  12.0704937  74.8453999
  19.5310557  12.9550457  73.6758041  33.5049129   4.1163126  54.9013710
  33.0600119   4.0835288  55.7482576  34.2624187   4.6821526  55.0505114
  35.7934475 100.3864193  90.8256149  36.2218928  99.5886993  91.1359596
  36.5020847 100.9075737  90.4481697  61.5572309   8.9030689  60.5296612
  61.8590117   8.3901519  61.2793779  61.4872694   8.2675922  59.8172665
  61.0574865  16.7434037  79.6571541  61.4705276  17.5698316  79.4068623
  61.7813158  16.1189449  79.7057390  81.3650513  32.5399852  21.2490201
  81.5101147  31.6527367  20.9204268  81.3615894  32.4450636  22.2014976
 104.0736198 106.9185448  72.3071289 104.3824577 107.6805782  72.7971840
 104.6996784 106.8257618  71.5890312  52.3284054  29.8156357  61.1308575
  51.8558168  30.2922702  61.8132877  53.1989336  30.2135015  61.1198711
  70.8167982  64.6953106   8.7680727  71.3086987  64.1044760   8.1978291
  71.3704586  64.7971058   9.5422357  30.8637381  21.0039973  70.6717062
  31.0611415  20.2511501  70.1144934  31.1762691  21.7592120  70.1735020
  77.2367954  68.2513142   9.9479467  78.0972624  68.2952833   9.5309466
  77.2562265  68.9417458  10.6106377  64.3085766   9.5151681  83.8679790
  63.8685465   8.7126094  83.5877895  63.9599609   9.6865457  84.7428036
  68.6567068  18.6533833  68.4691000  69.3706942  18.3579326  69.0340471
  67.8608704  18.4196484  68.9468479  17.9204679   4.4624168  78.1904650
  18.4003258   4.6437263  78.9986086  17.0200038   4.3080768  78.4760809
   9.7709084  66.0985899  14.3659365  10.6478894  65.7554293  14.5373392
   9.9192894  66.9939852  14.0618217  99.4222927  58.7860918   8.8717312
  98.9529610  59.4255114   8.3359134  98.7629223  58.4541798   9.4810724
 101.2739086  88.3222198  50.6029749 102.1392918  87.9293346  50.7168770
 100.6828022  87.7433014  51.0843134  67.8113985   5.6370378  75.6045914
  67.9303408   6.3491893  74.9761629  68.1897879   5.9699959  76.4183426
  20.2381492  71.3722849  88.4958458  20.8893633  71.6219330  89.1514587
  20.0170422  70.4661274  88.7108326  99.0740776  46.5127087  10.7385683
  99.2892933  45.5800867  10.7269955  99.8991966  46.9462395  10.9564304
   3.9679173  51.6739941  30.1826906   4.7691357  52.1385765  30.4244423
   3.8199997  51.9118977  29.2674017  13.7491798  87.8518295  70.8450508
  13.1048679  87.1980095  70.5737352  14.5952439  87.4258804  70.7072973
  45.4195023  77.8354406  15.0821018  44.9627590  76.9972801  15.0106812
  45.4029846  78.0382729  16.0174191  73.3395863  76.5305519   3.9416978
  73.7810898  75.7953072   4.3668073  73.0553532  76.1829281   3.0963573
  85.4295254  88.6301613  30.3914356  86.1662769  89.1815281  30.6549382
  85.8198357  87.7720070  30.2257442 112.3328876  61.3378525   8.2233214
 112.0638371  61.8503761   8.9856637 111.6110229  61.4353085   7.6023126
 101.0762119  43.6312675   8.2874537 100.4664612  43.8491869   7.5825161
 101.8638229  44.1372919   8.0878359 101.5714836  43.5376024  20.1611733
 101.4930153  44.0093088  19.3319774 101.2352562  44.1484404  20.8169651
   2.5013933  89.6619701  14.6093547   1.9988474  89.2501545  15.3122652
   2.4860570  89.0222931  13.8974535  65.7512379  94.1513729  83.8017750
  66.3951349  94.8595619  83.8117599  65.5261230  94.0453529  82.8774834
  28.4873700  28.3021808  67.2643805  29.1878176  28.7042522  66.7506266
  28.9328027  27.6556611  67.8119516  92.7878761  98.3631706   6.3785392
  92.0396423  97.8048611   6.5898734  93.0713081  98.7136078   7.2229892
  43.3093309  20.1777649  85.9533691  42.4189806  20.1999021  85.6026268
  43.1995678  19.9233961  86.8696022  50.0045490  14.2501056  88.5823250
  50.2496481  14.7871006  89.3358421  50.0028133  14.8596168  87.8442669
  19.8799777  82.0757008   2.0000120  20.7181954  82.1799946   2.4502859
  19.8440886  81.1465359   1.7728689 105.0327778  52.9257059  16.9282877
 105.6265640  53.6441708  16.7104661 105.4152012  52.5276184  17.7102780
  28.0312109  24.7651958  88.5968876  27.8601289  24.3276906  87.7628899
  27.3115993  24.4888592  89.1643620  51.6056013  56.8583202   1.1839211
  50.9359455  56.2614298   0.8499775  51.6620207  56.6565657   2.1179155
  47.1802521  95.3290176  91.3875008  47.0873976  95.9317875  92.1252537
  46.9972992  94.4659710  91.7588425  40.1437807 106.3346100  56.6154337
  40.8703947 106.8880939  56.3292122  39.8764038 105.8633614  55.8263445
  38.5099101  77.3994923  49.8476362  37.9542398  77.2740841  50.6168795
  39.1862845  78.0114317  50.1379490  25.7822537  35.0617433  87.0086956
  24.9901342  35.3010654  86.5275478  26.1706090  34.3543148  86.4939594
  45.0720119  15.0080645  79.8144722  44.2610025  15.3321242  79.4227076
  44.8137808  14.2083478  80.2727318   9.7577643  63.7785339   3.1235012
  10.0484467  63.1927967   3.8225356   9.7315645  63.2252645   2.3428340
  99.2200184  61.2264442   6.5425980  98.5837841  61.8870020   6.8166381
  99.4068909  61.4387417   5.6281352  84.7583580  18.7028027  84.0104675
  85.1367092  19.3945563  84.5531940  85.0848103  17.8899872  84.3964577
  50.1146126   9.4195986  41.0329723  50.9277487   9.5873809  41.5093040
  49.6245861  10.2391601  41.0994959  66.6163111  28.1379175  60.8174276
  66.3081694  28.4669709  61.6618252  67.0516777  28.8880515  60.4124784
  71.8222427  18.3181095  58.2129574  71.6498137  18.8431108  57.4313736
  71.4397764  18.8235903  58.9302063  85.6629658  11.8543983  92.4913025
  85.5398083  12.7034104  92.0667553  84.7747517  11.5378523  92.6559448
  67.9459524   9.5995635  91.3847828  68.4450817   9.9414265  92.1265602
  67.2006845  10.1946354  91.3029385  61.4210653  24.3772316  82.4983597
  62.0160723  24.1059041  81.7993736  61.9339991  24.9902010  83.0250454
   8.0435050  67.8903008  54.8356962   7.5792342  68.7023687  54.6326351
   8.7511444  67.8516626  54.1922760  26.1271811  10.5400479  81.8777752
  26.5873337  10.0099051  82.5284958  25.8568907   9.9137026  81.2063026
  82.3982430  79.2925453  24.0311766  83.2909298  79.3294907  24.3746352
  82.0865059  80.1964188  24.0766764  55.3291559  13.5117126  87.4978924
  54.6687078  13.4633887  88.1890583  54.9709415  14.1367185  86.8675900
 101.3408947  37.1723652   1.5490597 100.5466366  37.6511192   1.3120565
 101.0230923  36.3434529   1.9070224  20.4148841  89.7116756  24.7600150
  19.8650467  89.1059780  25.2570534  21.1308074  89.1690540  24.4294906
  35.6776023  20.5367970  72.0188665  35.9010291  21.4652395  72.0844793
  35.2289462  20.4573226  71.1770678  32.4355912  18.3541131  91.3040543
  32.3335361  18.4579682  90.3579903  31.6149354  18.6829042  91.6709995
 102.6997280  60.9116888  11.1308563 103.1922150  60.2323008  11.5914202
 101.7848587  60.6431293  11.2151921  32.7210641  39.3943024  74.2417765
  32.4813390  39.8620629  75.0417519  32.1935439  38.5958910  74.2639542
  30.0556588  91.3974667  59.2899609  29.4776702  91.9193363  59.8465729
  30.9344077  91.7225742  59.4857550  53.3974743  60.9869480   5.0760770
  53.0306959  60.2910662   5.6214720  54.0036535  61.4500570   5.6542695
 108.1690025  71.2340307  21.1697292 108.2812786  71.4875507  20.2535677
 107.2942543  71.5474749  21.3995123  74.0915346  53.4578943  30.1447940
  74.7647095  53.3478689  29.4732571  73.3509159  53.8473177  29.6799636
  84.8222160  20.1551867  59.7043228  84.7814846  21.0359716  59.3317747
  83.9310741  19.8168111  59.6171474  78.7888432  25.1505303  89.4330025
  79.3895483  25.0168753  90.1661682  79.2521000  25.7524252  88.8504696
 103.3607674  94.1007614  36.7138767 104.0337276  93.8460827  37.3451424
 103.4573746  95.0494194  36.6304469  69.1527128  20.8299446  82.8966904
  68.7387514  20.0729203  82.4822140  69.2941570  21.4480400  82.1796227
  96.2516022  38.3854699  89.5232487  96.0670090  37.4472570  89.5669460
  95.7528782  38.7617254  90.2484703 101.4672947  75.1927042  24.3312669
 100.6525326  74.8165989  23.9981937 101.1881256  75.9454393  24.8525071
  84.8073101  48.2399797   1.3071825  85.5454731  47.8745794   0.8195070
  84.6530247  49.0941811   0.9037425  65.3893137  69.1097021   5.0265872
  65.7259083  68.7398815   4.2103949  65.9840775  69.8329639   5.2250415
  65.1599455  22.1582890  73.4208441  65.4087114  22.6976323  74.1714811
  65.9729004  21.7288232  73.1545830  14.3018651  74.6117830  36.7540717
  14.0729940  75.3533220  36.1937428  14.5181096  75.0073862  37.5984430
   7.0012897  78.2758188  13.6469400   6.8351901  77.9089689  12.7785718
   7.9257959  78.0908966  13.8122392  16.5661526  95.6519222  87.6631260
  17.0867860  94.9014664  87.3767853  17.1188331  96.0952854  88.3067131
  99.4931507  99.2378616  26.7486167 100.0124359  99.9758148  26.4292550
  99.8102570  99.0895844  27.6395082   0.6465292 102.9693985   8.3369213
  -0.0782633 102.4818707   7.9454982   0.7530165 103.7348175   7.7720964
  24.2102861  95.0511456  90.6433678  24.0966678  96.0004234  90.6901836
  23.3263206  94.7106171  90.5059910  70.9969378  19.0268981  86.5823746
  71.7077589  18.6298966  86.0790348  70.1984072  18.7017095  86.1666489
 106.1239529  25.4530764  90.5627918 105.2677631  25.1094627  90.3076649
 106.1015511  25.4656792  91.5196514  12.0173931  46.2270451  13.5797334
  11.2395573  45.8425140  13.9838886  12.1208096  45.7491589  12.7568328
  54.4906616  45.8136845  80.8699131  53.6071110  45.9217453  81.2218952
  54.8448944  46.7022419  80.8349800  50.5614090  34.5790315  81.7269611
  50.9576797  35.4502964  81.7171001  50.0360775  34.5457864  80.9274864
  99.4382572  34.5865750   5.6290621  98.9326477  35.3993201   5.6230623
 100.1497173  34.7516608   6.2477732  42.6129436   2.1350700  68.5066652
  42.4019766   1.2275653  68.7261152  41.7872429   2.6064336  68.6174250
  62.1903658  28.8175583  56.1114311  62.8881407  28.6322689  56.7399263
  62.0981693  29.7701287  56.1298418  78.1704187  87.0597267   3.3003575
  77.4746227  87.3500538   3.8901129  78.9190102  86.8978500   3.8744995
  83.8717937  67.6335478  32.1851206  83.0260944  67.4929905  32.6108861
  83.7235546  68.3737278  31.5965700  50.6676960  14.0088081  74.4481516
  50.1962996  13.2643056  74.0743494  51.2571383  13.6192787  75.0939560
  43.8415289  72.3604822  18.3230257  43.0957127  72.3244095  17.7241218
  43.4595251  72.2228050  19.1898298 101.5348339  96.2514782  21.4021778
 101.9467926  96.9959068  20.9636045 102.0362377  95.4917049  21.1062694
  71.8623400   9.9079305  78.4969044  71.2359715  10.5580664  78.8150501
  72.1001053  10.2128613  77.6212835  76.2294722  66.1579657  11.7566955
  76.6139126  66.0457373  12.6260900  76.7400360  66.8627787  11.3582075
  23.6459994  86.7698288  21.8240333  23.9087319  87.6691628  22.0199919
  24.3813825  86.4077854  21.3296986  95.4080868  63.5935593  17.1235192
  94.7639084  63.2909489  17.7635980  95.1635075  64.5023489  16.9488442
  97.0992088  65.4490900   9.5672899  96.2503529  65.8865595   9.6328437
  97.7309990  66.1633682   9.4843864 104.7733593  11.6167653  31.6257286
 105.2794170  12.1968150  32.1946573 105.1940346  10.7621336  31.7199087
  66.7282534  37.3846126  82.5442123  66.6686821  37.8714514  81.7222214
  67.6582384  37.1756649  82.6319790  85.3915310  56.5845108   1.1934806
  85.2157021  57.3449087   0.6393104  86.1310482  56.8517923   1.7392862
 106.7778778  17.1413028   6.6373378 107.1334267  16.8274117   7.4687779
 107.5127411  17.5865114   6.2154329  80.4676056  85.7841206   7.0519978
  79.6139812  86.1347008   6.7977345  80.2811146  85.2208805   7.8031373
  79.2055416  19.6300137  80.3362083  79.7281933  20.4299903  80.2804565
  79.1405058  19.3229032  79.4319439  63.4297705  23.9790559  70.3334522
  62.9629135  24.6226645  70.8664083  64.3549967  24.1893506  70.4597998
  91.0181904  89.4327068   0.5739735  90.4832840  89.2516899  -0.1989062
  91.6940117  88.7549591   0.5616202  41.5113115   3.2643059  79.7006321
  41.9507742   4.0150407  79.3012571  41.4741087   3.4768134  80.6332016
  32.5236654  19.3928707  75.9490824  33.3347225  19.6466649  76.3895464
  32.2664165  18.5745358  76.3737965  99.9237347  93.1070137  44.7596884
  99.9969959  94.0582657  44.6823835  99.0513992  92.9629898  45.1264334
  27.3916173  88.2073021   8.2563734  26.4522338  88.0270958   8.2926744
  27.4504614  89.1608429   8.1971061  61.7934132  39.6758223  77.3601437
  61.1369562  40.3676605  77.2785521  62.1458578  39.5745897  76.4759731
 105.3098106  58.5740614   5.5766100 106.2115479  58.6293936   5.2603304
 104.8772621  59.3416691   5.2025568  52.6418734  56.3650084  88.3131599
  51.7472601  56.0255241  88.3387089  52.9273129  56.2202454  87.4110508
  70.8464766 102.2313499  11.9020283  70.4629707 102.0267963  11.0492015
  71.5576410 101.5986443  12.0028102  48.9322615 101.5387249  80.1923466
  49.3198919 101.9798565  79.4364548  48.9385939 102.1997261  80.8846474
  85.2866936  36.3355827  19.8881197  84.8106766  35.5843830  20.2421451
  85.5861473  36.8150568  20.6605625  56.1752462  14.5359075  51.8926001
  56.5056324  15.1821542  51.2685490  56.7115307  13.7581646  51.7384911
  35.5096984   7.7152783  23.2464337  35.7745123   6.7956281  23.2277513
  35.4285312   7.9599249  22.3245931  64.7008562  78.7497950  23.0555654
  65.1005888  77.9397392  22.7389288  64.0720272  78.9886951  22.3745847
   5.9967315  99.3642330  15.4409015   5.2820462  99.3372250  14.8047209
   6.4060146  98.5012245  15.3781271  17.3264349 106.2451744  10.7123089
  17.7362847 106.6186333   9.9320602  16.3870573 106.2893295  10.5338371
  25.3346133  23.3855200  72.7335787  25.7400084  22.6331711  72.3024654
  26.0361242  24.0340137  72.7933216  13.9016068  80.9739685   5.0217766
  14.0755844  80.0328350   5.0373054  14.7677565  81.3766575   4.9596903
  54.8555660   9.4831449  67.7487230  55.1702404  10.3516531  67.4979115
  54.8930216   9.4818181  68.7051868  32.1881008  19.0933299  80.8951092
  32.6679277  18.3797383  81.3155746  32.5305057  19.1183746  80.0016022
  72.5955153  30.0806856  52.7503729  72.4699736  30.7210588  52.0500898
  73.4914064  29.7660613  52.6294374 102.4295807  88.4521866  23.6372232
 102.2781849  89.2667007  24.1166854 103.0605507  87.9722309  24.1736531
  29.9264240 106.3445663  77.3989534  30.5151510 107.0579529  77.6453447
  29.0486526 106.6963863  77.5471783   7.8210157  93.5057354   7.2736675
   8.5346276  93.3328629   6.6595799   8.1127256  94.2698956   7.7708644
  65.7986784  31.5768671  72.1561766  65.7297421  31.0777664  71.3423061
  64.9975157  32.0998716  72.1850014 112.1897697 105.2960777  83.3499908
 111.9901276 105.7964706  84.1411877 112.8594494 105.8130646  82.9022408
  90.3670025  41.4167500  81.6985512  91.0804653  41.2399626  81.0854053
  89.7119904  41.8802261  81.1766434  66.7519093  94.0182495  29.7213626
  66.8258810  93.3737183  30.4251647  67.6559019  94.1891766  29.4571376
 112.6323414  71.2255383   0.8601300 112.5251007  71.8677711   1.5617505
 111.8010998  71.2477064   0.3860248   2.3098046 104.2224979  69.3628168
   2.9873228 103.9713955  68.7350035   2.7888742 104.6434498  70.0766182
  99.7173691  55.5402279  27.9077458  99.2794800  55.1420927  27.1554327
  99.3482113  55.0883150  28.6665154 107.3142529  10.3317988   4.8257318
 108.1090069  10.2847517   5.3571343 106.6081524  10.4511130   5.4608881
  37.7894306 100.1213551  45.6837177  38.4370351 100.8137798  45.8155680
  37.0571017 100.3675842  46.2487793   9.9251395  87.2889519  23.8631439
  10.7493210  86.8025017  23.8810802   9.2740113  86.6691875  24.1920018
  98.4772778  40.5212975  40.6457233  99.4265461  40.5539370  40.7643032
  98.1377792  40.2605820  41.5018797 108.6226368  63.7890005  33.4907675
 108.4889889  62.8427076  33.5445690 108.6686993  64.0766096  34.4025731
  78.2076216  85.7392883  30.2031970  78.9546394  86.0761833  30.6978631
  77.9492044  86.4653587  29.6354938  71.4899206  68.8050127   9.0522003
  71.6663122  67.9464960   9.4369978  72.3510218  69.2168236   8.9804608
  77.4688864 100.5980492  11.6345739  76.8665171  99.8763561  11.8149734
  77.5594711 100.6019115  10.6816769  52.7583647  35.5585814  73.7409449
  52.0576954  35.0877285  74.1921568  52.4111748  36.4417005  73.6152697
  40.7756853   7.6176733  76.9675827  41.4054060   7.9069728  77.6278782
  40.6756783   8.3710647  76.3856602  45.0158930  34.5136595  71.0069323
  45.8275795  34.0393424  70.8268976  44.3780375  33.8289857  71.2084246
  41.0680532 103.0451393  90.3211212  40.8894920 103.5717201  91.1002636
  40.6882191 103.5475063  89.6002960  93.5577202 104.6387482  12.6687813
  92.7601624 104.4080734  12.1924233  93.2454014 105.0710583  13.4636378
  78.6592674  26.5715480  74.2268801  78.3707952  26.5520620  75.1393700
  78.1874752  27.3102713  73.8422537   3.7476644 100.2258778  13.9268434
   3.6684337 100.0478840  12.9896820   4.1303793 101.1020470  13.9727104
  99.0813065  67.2496319   9.3694824  99.7253036  67.6218510   8.7670237
  98.5521603  67.9976130   9.6465206  68.9981747  66.8345451   8.7599725
  69.5619488  66.0640240   8.6914623  69.4096184  67.4838448   8.1895691
  76.1916161  32.3358727  92.4041367  77.0672655  32.1430922  92.7392578
  76.2722111  33.2038689  92.0087624  83.8599110  45.6355238  77.0816326
  84.4045162  46.3925314  77.2974586  83.3898258  45.4397774  77.8921509
  96.8065834  69.1700888  24.0785837  97.6779366  69.0193081  23.7121797
  96.2835598  69.4723558  23.3360839  74.3570757  24.5904469  79.9541950
  74.8354435  25.1786947  80.5384636  74.6933889  24.7940469  79.0814590
  65.2474546  38.5108447  78.7124109  64.5516348  38.7022972  79.3412256
  64.8245668  37.9717302  78.0440140  90.0193310  76.1090183  92.2322559
  89.1346264  76.1291981  91.8673897  90.2088928  75.1781273  92.3494720
  84.2016315  76.9359350  33.2947373  84.2523003  77.3706245  32.4434400
  84.8012924  77.4312639  33.8526630  79.0059948  47.7172947  10.8826137
  79.2197084  47.8840637  11.8006253  79.7078419  48.1448030  10.3918231
  39.3917942   1.2834166  80.0248337  39.6351981   0.5757793  80.6216908
  40.1192665   1.9031732  80.0788403  56.0579967  46.3172770  83.9851952
  55.1308489  46.1270285  83.8422585  56.2263966  46.0279322  84.8819447
  56.8010426  15.1839316  80.4781055  56.6077089  15.3743339  79.5601749
  57.5461102  14.5838404  80.4464722  69.3483877  29.7596717  88.1876183
  69.8972511  29.2345428  87.6051903  69.3736362  30.6395960  87.8116798
 103.7508774  81.3184452   7.1927983 103.5710907  81.5578842   8.1019622
 103.0624771  81.7536640   6.6898835  98.5646057  72.7866650  36.2397861
  99.3622780  73.2752657  36.0367155  98.6727333  72.5203896  37.1528220
  32.8901124  97.1409798  84.9751377  33.1141591  97.3035812  84.0588474
  33.7270713  96.9414997  85.3945923  61.7576456  39.2067361  74.7084856
  61.6347980  39.6940780  73.8938427  61.0274935  38.5881519  74.7299623
  78.6408329  39.3002892  91.3003254  77.8366280  39.2875195  91.8192863
  79.3046665  38.9236498  91.8779850  61.6598654  25.8620286  88.3795834
  61.8314457  24.9219346  88.4344864  61.5496969  26.1389184  89.2892170
  90.4172421  59.9555349  56.5204668  90.2147579  59.7771406  57.4388361
  91.1886024  59.4193554  56.3367462   4.6507782  44.2758226   7.1095896
   5.1359743  43.7760305   6.4530665   4.9693546  45.1730728   7.0111817
  82.6921844  32.6250196  81.2258434  82.0653439  33.3457708  81.2876415
  83.3080387  32.9007435  80.5469227  83.9982891  27.5776720  78.1910849
  83.9676952  27.4469852  77.2433424  83.8735962  28.5195947  78.3071280
   1.4964992  58.2519531  11.3859117   2.0073362  58.9079046  10.9115648
   2.0851962  57.5013733  11.4652741  47.1010208  41.7483616  83.4500027
  47.0920706  42.2955990  82.6647091  46.1769581  41.6290712  83.6693478
  52.4128962   5.3768378   5.5181462  52.7573586   4.9187249   4.7515237
  52.6264048   4.8045489   6.2551194  62.0565224  40.3801394  81.7310143
  62.4773121  39.7803330  81.1150646  62.1027136  39.9290776  82.5740147
  60.4494143  86.1578178  13.2266653  60.7010841  86.8241692  12.5872302
  60.9310150  86.3929367  14.0197670  44.3192148  46.5659571  85.3631210
  44.0502310  46.8871307  86.2237835  45.1625347  46.1408043  85.5189705
 105.0166225  72.3788023  87.8226757 104.3225574  71.7602825  87.5947952
 105.3410244  72.0733309  88.6698341  70.7344294  78.1028748  32.8701878
  70.5635977  78.7849188  32.2206783  71.2329340  78.5456324  33.5569859
  81.2194347  75.8351231   1.2383487  80.6148338  75.1953650   0.8623277
  80.9063625  76.6797066   0.9144751 110.3191090  85.2670765   5.0666052
 109.8593044  85.3682518   5.9000194 110.7126045  86.1244774   4.9045298
  89.8108959  56.8319225  16.0295522  90.0362110  55.9086990  16.1441088
  89.8603439  57.2016954  16.9110608  22.4762893  38.0564094  91.5157127
  22.2727275  37.4956179  92.2642517  21.6399598  38.4608078  91.2849617
 109.9128819 102.6557064  19.4469202 109.8145390 102.8475857  20.3795195
 110.1602554 103.4931660  19.0548730 101.8151760  65.2317810  13.3937597
 100.9395027  65.5186367  13.1346369 101.7233944  64.2915297  13.5478270
 105.9356689 104.2560577  24.7228050 106.2377739 103.4272575  25.0943637
 105.6435871 104.0302849  23.8396549  91.1148834  62.4609566  24.6749401
  90.5999851  62.9751873  24.0531135  90.5589008  62.3974800  25.4515219
   4.5551226  99.3624210  18.6294210   4.7683504  98.8237381  19.3913817
   5.1719397  99.0781116  17.9549301  50.1025772  46.8313599  90.1200581
  49.1540623  46.9059277  90.0152302  50.3189135  47.4673462  90.8019352
  97.4251842  77.0936489  36.6837645  97.2403622  78.0325699  36.6613555
  97.0515537  76.7564964  35.8695364  77.8393745  22.9729056  71.8419886
  78.2970858  23.3515692  72.5925541  77.7115107  23.7087297  71.2432861
  17.6697552  49.5200825  62.7806520  17.1296549  50.2569866  62.4951839
  17.3263276  48.7694979  62.2959709  68.5595942  25.2299690  89.0325832
  68.4203815  24.3756199  88.6240005  68.5666656  25.0477743  89.9722576
  89.6754169  48.5359907  73.0786228  89.4869709  49.4401217  72.8270912
  88.8439465  48.2030725  73.4163380  43.1134367   6.8133336  81.1740303
  43.5802746   6.5871263  81.9784737  43.2198429   7.7612138  81.0938358
  24.0367222 102.3496246  92.1070480  24.5194054 102.9169178  91.5058613
  23.7246728 101.6298294  91.5586376  74.7833300  33.9153290  22.4967074
  75.6506681  34.2094493  22.7749944  74.2008829  34.1796470  23.2088375
  88.1942558  51.4183426  82.1402740  87.3126984  51.2287998  81.8190765
  88.1679153  52.3447514  82.3796558  99.0645790  53.8827085  52.4105215
  99.5195484  53.6559629  51.5994549  98.2071018  53.4652185  52.3288965
  57.9883194  61.3851309   7.3034275  57.4026394  61.7109156   6.6199952
  57.6381111  60.5230856   7.5280732  45.5020046   4.9578977  88.2297421
  45.6340551   5.9027803  88.3071518  45.6563044   4.7695330  87.3040295
  41.1937714  20.7334137  82.4462223  42.1267986  20.5217028  82.4757290
  40.9726429  20.7120252  81.5151596  83.4671116 101.7563057   0.7061426
  84.2832184 101.3641834   0.3955821  83.0179405 101.0447693   1.1624123
  93.7388706  10.0778258  82.4241352  94.6576595  10.0200474  82.1619892
  93.7688351  10.2690220  83.3615685  69.6797466   0.9733289  15.9932613
  70.1104832   1.7861885  16.2577581  69.3119860   0.6222683  16.8042743
   3.7466457  69.5137453  39.7407079   4.3660915  70.1851273  39.4547677
   3.6798739  69.6371412  40.6875706  51.0432577  26.4822268  73.2447004
  51.9832706  26.3063121  73.2855082  50.6676722  25.9392738  73.9377832
  61.8385744  95.6744480   9.9719018  62.0030212  96.5443230   9.6078855
  61.1909103  95.2869606   9.3831599   1.1254524  62.0373583  57.0554638
   1.1272622  61.1233473  57.3397398   1.3913150  62.0029163  56.1365700
  94.0898895  39.4136572  18.8574588  94.1754532  38.5368586  19.2318094
  94.9282932  39.5716476  18.4234595  98.6282253  55.3830671  80.1404858
  98.7996006  55.7206535  79.2613363  97.7825737  54.9407625  80.0665760
  33.3002996  11.8955803  72.1443129  33.3337069  11.9884479  71.1922169
  32.4515867  11.4874041  72.3155165  32.8022265  39.2595053  82.4899292
  33.6277604  39.5281792  82.8930950  33.0198431  39.1206694  81.5681934
   4.5087066  91.0987186   6.4161497   5.1379591  91.4665413   7.0366156
   4.6274298  90.1516056   6.4877146  89.7727299  83.6520100  13.7869239
  90.5444050  83.2381916  14.1735780  89.6518421  83.2002354  12.9517472
  69.7031593  33.5679460  92.4244118  69.6047354  33.4834409  91.4760399
  69.0844584  32.9338598  92.7868652  73.1608963  35.9323168  85.3385162
  73.7670326  36.0887027  84.6143723  72.8982258  35.0174069  85.2376556
  68.7910128   6.4782661  34.6317267  68.0062056   6.1048001  34.2306948
  68.5406160   7.3735774  34.8596549  17.9483473  34.3926287  64.3806839
  18.1374276  33.5084033  64.6947384  18.7707043  34.6893144  63.9908934
  57.9352045  15.3939617  73.4777260  58.3551931  16.2356043  73.6551428
  57.0408916  15.4994297  73.8022470  39.1212630  44.8116636  89.6336937
  38.2021832  45.0181007  89.4636631  39.6006942  45.5796671  89.3229771
  69.5169067  11.8610775  75.5437183  69.6374178  10.9150743  75.4613400
  68.8269234  11.9583821  76.1999798  39.7318268  43.1277180  74.1556454
  38.8305998  42.8363132  74.2938662  40.1112556  42.4664545  73.5768509
  72.3215342  15.0760067  75.9704590  72.5534964  15.9508157  76.2821245
  71.3675785  15.0941718  75.8938599  98.3735657  85.1430321  18.5443509
  98.0371666  85.1433468  19.4404912  99.3251705  85.1229668  18.6457443
  31.6245222   0.2165094  37.7019453  32.2826648   0.8609799  37.9622102
  30.9485173   0.2785932  38.3767748  48.9324188   5.0120193  87.7620411
  48.5869122   5.8913618  87.9157066  49.8139191   5.0325584  88.1345558
 111.5063763  87.7459526  35.8823037 111.6987896  86.8579483  35.5812001
 112.3412991  88.2087994  35.8122373  94.9804592  40.8023834  82.9035282
  94.1759872  40.9746075  83.3928013  94.8878860  39.8990703  82.6007271
  98.5788536  64.5849991  11.7297459  98.0220318  64.8123932  10.9851193
  99.3236351  64.1265583  11.3406932  73.0933285  12.8039777  85.0151443
  72.5501919  12.0169926  85.0585747  73.3223677  12.8861320  84.0893936
  14.5301163  55.0743389  16.8294179  13.7858593  54.8963165  16.2544203
  14.1592777  55.5826473  17.5507605 109.9567890  83.2520103   3.1958458
 109.0120888  83.3707619   3.2942376 110.3409576  84.0035820   3.6472762
  85.2230835 106.2550831  39.5033741  85.3445435 107.1890068  39.6744156
  84.4264221 106.2100315  38.9746714  94.2136669 105.1305962   7.3861969
  93.4650326 104.7657967   6.9142830  94.1608143 104.7394276   8.2582229
  91.1702824  98.8109779  19.6333647  90.2132416  98.8251495  19.6432948
  91.4196491  99.6847820  19.3325174 101.4847851 104.3000031  22.8208184
 101.3497829 104.6083832  23.7168694 101.4476109 103.3458710  22.8877354
  48.5974646  34.1368556  91.9343567  48.4358883  35.0234604  92.2569370
  47.8138638  33.6456609  92.1811962  69.0369272 102.1526241  30.1060581
  68.4253931 102.8237724  29.8030233  68.7739372 101.3601112  29.6381044
  40.7486153   2.5424790  72.3276901  40.6195068   1.5987982  72.4227142
  40.5907011   2.8952044  73.2034063  90.0712204  84.0701008  29.8784041
  90.9733105  83.7527180  29.8368406  90.1551533  85.0099182  30.0394654
  41.8071604  19.3378484  92.4433613  41.1005592  19.9036336  92.7545357
  42.4767256  19.9436116  92.1256065 108.6009979  72.0861387  18.4810078
 108.6141014  71.2441969  18.0258203 109.4322205  72.4984789  18.2459176
  92.4457550  76.8398619  20.8941674  92.8993225  77.6423931  21.1519432
  92.1604538  76.4500093  21.7205167  81.8513012  14.9324155  92.5625706
  81.8303204  14.4770265  91.7209053  81.0352421  15.4321897  92.5848961
  80.3857422  66.7213440   3.3450416  80.8167076  67.2146177   2.6470590
  79.9146271  67.3836327   3.8506687  22.5934362  99.1047955  80.0162411
  21.9362617  98.6225128  80.5179882  22.0842028  99.6800327  79.4452572
   2.8619975  42.1829414   6.1589313   2.5852332  42.6128674   5.3497338
   3.3622387  42.8517914   6.6265118  60.1324511 105.1486301  19.8805118
  60.1194334 104.8296261  18.9781260  60.7109785 105.9108448  19.8567724
   8.6642551  20.6757593  74.6258211   8.1912160  19.8531556  74.5001650
   8.3682483  20.9944296  75.4784966  85.7088184  31.4487743  91.6298294
  85.5952930  30.7522368  90.9831619  86.4318562  31.9758320  91.2897205
  66.1885405  30.4506350  79.9822330  66.7413902  31.2081742  79.7905827
  65.9711742  30.5413461  80.9099960  89.0576458  52.3824644  31.1348081
  89.5325089  51.8311310  31.7567205  89.6506214  52.4667692  30.3881454
 103.6038208  45.2651501  26.7257190 102.6976681  45.2543640  27.0339274
 104.0538692  45.8597279  27.3258567  30.5376482  32.5712228  65.2140331
  30.9826899  33.0661082  64.5261002  30.9113455  32.9054046  66.0294533
  54.5268631  10.8629596  83.9325809  53.9323759  10.8964944  83.1831169
  54.7713470  11.7757070  84.0853882 102.2482109  79.2296886   3.7161648
 101.3000965  79.1908598   3.8418773 102.6123238  78.8904047   4.5338079
 109.3987274  28.7310171  30.1108384 109.6177006  27.8104734  29.9663258
 109.7641945  29.1860986  29.3521738  97.5450706  33.7457395   3.0268246
  97.0318794  34.0747857   3.7647891  98.2113934  33.1879568   3.4282351
  24.8552155  93.9160347  77.9277658  25.5939746  93.7206078  77.3513365
  24.0920544  93.5708618  77.4644423  13.8853598 102.7447224  84.0444851
  14.1446793 103.5956478  83.6910629  14.4845176 102.1218300  83.6330891
  10.8774436  72.5267506  15.9243393  11.5166938  72.9470921  15.3490961
  11.1507773  72.7744246  16.8076146 111.1549568  69.5150614  14.2242718
 110.9496784  69.4814920  13.2899451 110.4278183  69.0570498  14.6458578
  98.4341526 105.3364277  36.1405492  97.9796505 104.8655033  36.8390322
  98.9330673 104.6607685  35.6814241  76.4936876  43.0898285  89.8851681
  75.6735134  42.8265285  90.3025627  76.4406967  42.7251625  89.0017414
   5.4230249 103.1809330  42.7970695   5.8070189 103.8712311  42.2564554
   4.9217287 103.6500263  43.4640646  76.1534548  30.4497719  86.0297871
  76.7471743  31.1955428  85.9428787  76.4409447  30.0064993  86.8279648
  85.8383274  45.0613499  75.0531101  86.4356709  44.8529387  75.7714272
  84.9791431  45.1324034  75.4690409  59.6779490  13.6095679  74.4263887
  59.2159128  14.3820596  74.1007996  60.1871777  13.3014047  73.6767530
  25.7025909   4.8127910  34.0233374  25.5287647   5.4723400  34.6949124
  24.8762274   4.3379867  33.9343715  81.5247440  69.3449259  10.0544572
  81.4286709  69.2183352  10.9983730  81.7856693  70.2611208   9.9610019
  45.1872492  26.0228372  68.4100628  44.8842859  25.5035162  69.1548824
  45.7430840  25.4243064  67.9110241  92.4289799  84.6916676   7.3401403
  93.1000519  85.2674389   6.9735551  92.6038265  83.8377857   6.9444752
  79.9553776  72.0223951  16.6640377  80.2880096  71.7680073  17.5247753
  79.0048885  71.9387770  16.7402923  18.0456817  56.9659758  18.8908279
  18.2197630  56.9516039  17.9497004  18.9105892  57.0451021  19.2932034
  67.3180532  35.3340554  77.1791983  67.7326632  35.3255916  78.0419064
  68.0038166  35.6425333  76.5869141  17.0992637 101.6423130  44.8299408
  17.3355842 102.5011730  44.4795847  16.7536724 101.8267536  45.7033157
  89.9000359 100.9368610  21.2009883  89.2163658 101.0342503  20.5381536
  89.5324707 100.3217220  21.8356037  43.5389328  32.7469707  83.2656288
  42.8511143  32.6691270  83.9267445  43.0987120  33.1276178  82.5056648
   3.2501251  98.1063652   8.5893673   3.4748337  97.8178501   7.7047783
   3.3620101  99.0567398   8.5669905  52.6931524  46.6275167  85.1662731
  53.1935215  47.4428797  85.1985931  52.3415184  46.5270710  86.0508633
  84.8952675  55.1122618  81.0701275  85.2419090  55.9785318  80.8564758
  84.4816971  55.2242088  81.9260788  86.6277885  44.3598986  80.6830311
  87.1405506  44.9711084  81.2119198  85.7215023  44.6457386  80.7978821
  75.7091761  93.3676910   0.3662948  76.3768435  93.9705944   0.6933451
  76.1546564  92.8633785  -0.3144687 105.0559044 101.3511086  12.0474899
 104.8134613 102.2384834  11.7828739 104.2460918 100.9740639  12.3914146
  77.3928022  32.9149556  89.5504189  76.6845083  32.7000594  88.9434814
  77.5678444  33.8431334  89.3952465 107.7284336  55.5209780  10.8687341
 107.5658894  56.4642763  10.8675897 107.6656532  55.2682400  11.7898273
  32.5132227  72.6601076   1.6404501  33.2297468  72.2096872   1.1932964
  32.7679896  72.6584005   2.5631216   2.1036747  85.4884434   1.7357700
   1.6371357  86.1621189   2.2304797   2.9860732  85.8418941   1.6231807
  57.7002335  27.4088955  89.1688061  56.7883205  27.2432733  88.9296150
  58.1732750  27.3900366  88.3368778  24.0855932  78.3288717  15.7001376
  24.0513325  78.2676411  16.6547632  25.0007653  78.1530571  15.4815483
  82.8878784  42.8746462  72.9900980  82.3038387  42.9734945  73.7420034
  83.6283207  42.3699808  73.3266735   2.7639794  79.8160458  12.2934604
   3.6510926  79.8480082  12.6515663   2.5404391  80.7314587  12.1253049
  67.7685371  21.0289101  92.3560355  67.3861518  20.3354696  91.8183082
  68.2615772  20.5636267  93.0317993  46.7065334  94.3830013  76.2071943
  46.7590284  93.5632896  76.6986609  47.6041698  94.5467472  75.9179354
 106.5328407  65.2884245   8.4052318 106.0031891  65.1262760   9.1858757
 105.8935261  65.4187632   7.7048594  58.0488062  16.8391383  86.8222141
  58.2835245  17.1990407  85.9668732  58.7882805  17.0629001  87.3873234
  11.8336225  74.6876478  25.0244546  11.1789393  74.1372967  24.5946479
  12.6724279  74.3590689  24.7009254  85.0923252  96.1105347  22.6565266
  84.6424961  96.0521889  23.4994268  85.7483578  95.4141521  22.6864362
  85.3805733  89.3086433   2.3726892  84.5039463  88.9295959   2.4365528
  85.7154465  89.2900562   3.2692084  72.2008371  83.0095100   5.0715238
  71.6324615  83.2526684   5.8023131  72.9038477  82.4997425   5.4741961
  24.5036602 105.6712532   3.3794338  25.0147629 106.4028835   3.7254530
  23.9662313 105.3841972   4.1176724  62.1417189  26.2405849  71.4653730
  61.9807768  26.7033482  70.6430721  61.3466597  26.3819122  71.9793177
  94.9243259  55.5078506  76.8693829  95.4105663  55.5001783  76.0449123
  94.6432877  54.6008444  76.9901419  59.7109413  30.1216984  88.0373573
  58.8864613  30.0374341  88.5162830  59.9974251  29.2198300  87.8931713
  97.8234482  20.6819201  85.8491707  98.3969212  21.0136080  85.1582623
  97.6683044  19.7673392  85.6131554  45.2081776  42.9648304  86.0783672
  45.7350016  43.6812401  85.7241821  45.0846100  42.3699951  85.3386784
  96.1517811 105.4290390  30.4535532  96.8589497 105.0039005  30.9387422
  96.1922932 105.0391006  29.5803189  86.6029930  83.6468410  20.4790449
  86.6672611  84.5596790  20.7598233  85.6622601  83.4786510  20.4246426
  70.0487947 105.4498577   4.0678227  70.0679684 105.7255840   4.9842513
  70.5473137 104.6328545   4.0530360  72.6859140  41.6509676   9.4577426
  72.5229406  42.5749302   9.2680889  72.9374170  41.6367531  10.3812015
  83.4649181  33.8281679  86.7070580  83.5064316  33.7839460  85.7517815
  83.2030773  32.9477668  86.9764328  66.7724943   0.4168495   8.9026737
  66.2286758   1.0111505   8.3856648  66.1909294   0.1002321   9.5938820
  50.1369619  71.3418674  75.7740307  49.8070955  70.9095955  76.5617847
  50.6957054  70.6859875  75.3570604  92.7379990  59.4085693  86.3240147
  92.6789188  60.3477192  86.4993477  91.8572903  59.1617584  86.0417461
  18.9492524  10.7027078  11.0578430  19.5670557  11.4242315  11.1759686
  19.2658687  10.2409697  10.2814519  50.4685497   0.3362826   8.9254254
  49.6434021   0.6914691   9.2558837  50.5650949   0.7242566   8.0557197
  96.3865280  26.8969750  72.5630999  97.1501446  27.4569964  72.4234390
  96.1543941  27.0332074  73.4816742 105.5984211  29.4547296  69.5227098
 106.2038040  29.6008682  68.7958050 104.7330284  29.4379163  69.1140079
 104.7253513 100.5808830  16.0528982 105.2816105  99.8069477  15.9644413
 105.1423073 101.2401962  15.4982102  72.8181410  49.5599079   2.6940989
  72.8037739  49.2656612   3.6048377  73.3918905  48.9357281   2.2497557
  58.0532503  20.6495118  80.5291462  57.7628660  21.3400698  81.1249924
  57.3690987  19.9823260  80.5841923  20.3691316   8.3846861   9.9293107
  20.7796454   8.9024758  10.6218445  21.0962296   7.9209042   9.5140183
  20.6939268 103.6451435  14.6022868  19.7882736 103.6563492  14.9119627
  21.1916065 103.2740498  15.3308725  83.6525440  45.8648300  72.0234632
  83.4187984  44.9371672  72.0556688  83.6461926  46.1453390  72.9386139
  80.3880405  43.9152575  83.3020020  81.1782360  43.4502077  83.0271435
  80.6133366  44.8416233  83.2164478  42.3166895  34.2018485  89.5778370
  43.1162834  33.7438917  89.3186855  41.7144060  34.0646505  88.8466263
  94.0430450  18.8271105  69.9797726  94.6739388  18.1459510  70.2126408
  94.2062569  18.9977193  69.0521479  31.4679003   4.2137769  56.6731596
  30.9549594   3.7890142  55.9856224  30.8142424   4.6075732  57.2509861
 101.1933327  69.3258667  36.4724398 100.4906178  69.8654127  36.8347979
 101.9135475  69.4203138  37.0958209  70.1120043  17.8881538  76.8053389
  69.2123508  17.5722766  76.7212152  70.2245235  18.0437505  77.7430820
  82.3135471  56.9397593  85.9845161  82.4573898  56.1289549  85.4965210
  83.0481815  56.9845057  86.5965176  11.2830853   5.1013136   6.7332584
  11.3394022   4.1790003   6.9830549  11.2372851   5.5724198   7.5652397
  80.2765083  36.9256806  88.7709999  80.2965355  37.8511381  88.5273647
  80.1111126  36.4649796  87.9484272  17.6591325  75.2138805  10.7888043
  17.6027739  75.6096792   9.9190909  17.4286103  74.2953825  10.6493473
 109.1331005 100.7009983  15.3940618 108.2011127 100.5576324  15.5586183
 109.3188858 100.1889515  14.6069658  18.8413084  18.7363172  74.2452908
  19.0592432  19.1610456  75.0749540  18.1704414  18.0931520  74.4744349
  23.9938188  89.6041965  12.7456629  24.3963242  88.7680531  12.9803669
  23.1223822  89.3693733  12.4267757  48.2605886  10.1633537   7.3931128
  49.0885973  10.3864515   6.9678360  48.5134077   9.6195412   8.1391567
  52.0729589  22.9518533  64.7320223  52.7287531  23.5439491  65.1002407
  52.5305462  22.1164060  64.6378374  17.0402777   5.9441310  10.1383948
  17.7851427   5.4078031   9.8668081  17.3433816   6.3928628  10.9276986
  78.3997679  72.2827244  92.6169300  77.8384066  71.9720793  91.9065762
  79.2891550  72.2006607  92.2727203 103.3213139  17.7873540  70.2016830
 103.5599518  16.9384289  69.8293781 103.9433289  18.4025824  69.8133230
  18.7032568  21.3521338   5.0646746  19.1400278  21.8103862   4.3467128
  17.7782440  21.5771294   4.9648711  10.4527795   1.0958934  48.0731010
  10.2238071   1.9585729  47.7272892  10.8932376   0.6556516  47.3461819
  84.2959499  68.4372663  76.4900780  84.1364956  69.1823864  77.0693922
  84.7715473  67.8089237  77.0334148  71.1536646  68.0761337  21.3453531
  71.3138390  68.0382347  20.4024124  70.8421898  68.9679766  21.4997339
  76.2409496  25.0461221  61.9884491  76.6929102  25.6510782  62.5766611
  75.3349400  25.3547716  61.9774008  92.1308422  37.2429109  78.2599735
  91.6279793  37.0588660  79.0533733  93.0059910  36.9031715  78.4468794
  52.1847105  28.1502438  89.8582554  52.2255659  27.9481888  90.7929993
  51.3046312  28.5033369  89.7277832  25.1161122  38.9621282  86.4857388
  24.5983386  38.7441564  87.2607422  25.9662771  38.5511065  86.6423035
   9.2492753  65.9867477   9.1216856   8.4474468  66.2651587   9.5641690
   8.9897770  65.2144432   8.6192518  50.9940481  47.9933882  76.8993521
  51.0543156  48.6948013  76.2508011  50.4232264  48.3465481  77.5817537
  96.2662029  16.4237940  87.1829033  95.8984089  16.9333446  86.4608860
  96.1084080  16.9605267  87.9595947  51.3287830   8.0108124  86.6007042
  51.5426779   8.5740942  87.3444748  51.1160946   8.6191291  85.8929253
   9.7600853  89.4112682   9.2214322   9.2437583  89.0294933   9.9312824
  10.6235731  89.0077019   9.3094927  76.6102266  82.4852943  19.4508123
  76.1941385  82.7841282  20.2593899  76.2398148  83.0462170  18.7693536
  46.4809322  27.7774048  83.4588814  46.5347528  27.0292807  82.8641987
  46.2886810  28.5225272  82.8896141  45.7575464  16.8982708  27.3570013
  45.0499392  16.6802204  26.7503929  45.4389334  16.6069627  28.2113171
 102.4211216  96.9478512   8.5958558 101.7448330  97.6243782   8.6300957
 102.4930573  96.7278957   7.6670516  90.4257488  86.7483044  31.0710859
  91.3535786  86.5410614  30.9596395  90.2954292  86.7611980  32.0192838
  72.2734499  45.6619167  80.7608509  73.0008554  46.1212635  80.3411865
  71.5289831  45.8086348  80.1773548  71.5417051  90.5310154  29.1646385
  72.2606754  91.0304546  29.5517707  71.5697622  90.7529926  28.2339549
  18.4120452  85.5523014   9.6237481  18.3995152  86.3142204   9.0444833
  17.5193989  85.4959202   9.9646801  63.4415770  15.6060481  86.2426853
  63.0107880  15.7395530  87.0869827  64.1454887  14.9846089  86.4285755
  69.9117327  80.6320095   5.5473971  70.5258322  79.9863577   5.1977670
  69.9586821  81.3644791   4.9329674  19.6210599  97.3036861   9.0257400
  19.0103519  97.2599506   8.2899725  19.6570611  96.4077377   9.3607128
  61.4833832  85.3050041  20.3908491  61.0148573  84.5396328  20.0578022
  60.8851814  86.0367107  20.2392244  98.3720875  90.0835609  19.6865880
  99.3157768  90.1914978  19.5681190  98.1602764  90.6366825  20.4385376
  70.2470255  78.1912518  15.2260458  69.5584822  77.6831198  14.7971570
  69.8565435  78.4734201  16.0531723  47.6028776  19.2504323  40.1751041
  46.9176149  19.2391622  40.8433294  47.3394442  19.9468756  39.5736098
 102.3154354  87.8952026  19.7870088 103.2151604  87.5879765  19.8980892
 101.8462086  87.5402737  20.5420446  66.3338900  31.7234445  60.2773190
  67.1479321  31.3323426  60.5945063  66.6153002  32.3720789  59.6320963
  54.7143030  84.6520329  67.6017904  54.7654390  83.6982250  67.5396681
  55.3486443  84.8821926  68.2806635  38.2935023  26.8712425  85.0612068
  38.8798785  26.4940763  84.4053555  37.4149823  26.6476154  84.7539139
  14.8317075  91.8160057  40.4757547  14.7869849  92.3233891  41.2861824
  15.0153744  92.4650764  39.7966361  95.3748035  45.9674406  79.7029686
  94.6869850  46.3469028  79.1560268  96.1831379  46.1255836  79.2153072
  88.0245686  14.1371572   3.7658924  88.0237389  13.2581675   4.1448486
  87.3129177  14.1227388   3.1259096  82.5814152  71.5099907  58.0780268
  82.9605865  72.3855162  58.1549788  81.6461468  71.6393423  58.2354021
   1.6884728  88.4286404  12.2540474   1.0197376  87.7926350  12.0000470
   1.2199856  89.2618847  12.3036766  32.2164249  12.4442160  48.6343241
  31.9705439  13.3583772  48.4926081  32.5861192  12.1631122  47.7973413
  67.2897625  25.5477643  91.8494320  66.3651419  25.7865477  91.9149113
  67.7482796  26.2277985  92.3429394  86.5031910  35.1888919  79.7212982
  85.6761551  34.7505474  79.9215698  87.0400143  35.0560260  80.5025768
  61.6744852  74.1802692  88.2347488  60.8729553  74.6581984  88.4477425
  62.1211243  74.7347450  87.5949860  32.0149016  78.1613731  55.5064487
  31.7790151  77.5837708  54.7805214  31.9072628  77.6196814  56.2882519
  72.9338264  91.2333870  12.3394549  72.3187733  90.6555271  11.8877709
  73.3777618  90.6653976  12.9691732  39.5672703  42.1910381  91.0411930
  39.3507838  41.7078733  90.2437496  39.1138768  43.0284739  90.9443760
  97.8739452  87.6443481  13.5138738  97.6036549  87.6575851  12.5957227
  97.7794170  86.7292309  13.7782049  64.3684721   8.2221389   4.2511067
  64.1166306   8.2387459   3.3277807  63.6142397   8.5898054   4.7117409
  19.0641594  47.7424908  21.0798073  18.4559703  47.0058823  21.0186291
  19.9180686  47.3363400  21.2285042  16.2611437  99.0010738   9.3326193
  15.9345138  99.8086643   8.9359456  17.0682430  99.2616081   9.7764063
  79.4918585  69.6697140  14.1935050  80.3186703  69.1892815  14.2358446
  79.5607901  70.3265953  14.8863161  56.4700031  24.8051381  71.7175007
  56.2219334  24.2891645  70.9503889  57.3274183  25.1679111  71.4950848
  43.9394283   1.6283834   0.6272356  43.8222170   1.0273251   1.3629135
  44.8874855   1.7413034   0.5589119  38.3949947  27.3141098  70.4466200
  37.5456929  26.8793797  70.3696299  38.1801867  28.2363009  70.5868053
 108.0952644  64.3530607  13.2443023 107.8374577  64.4088078  14.1644442
 107.4429607  64.8781204  12.7805722  27.0423603  71.2311602  25.3485703
  27.0022726  70.3795767  25.7838106  26.5193963  71.8090200  25.9042835
  71.0537815  23.7621260  73.5665464  71.5895891  23.2347822  72.9740524
  70.2240133  23.2884836  73.6246729  82.8962517  33.7516737  68.5633659
  82.7133274  34.2300987  69.3719959  83.1408310  32.8733468  68.8548374
  97.5407982  66.9947338   3.3338380  97.1658325  67.4335814   2.5702640
  97.1171665  67.4137735   4.0829521  33.2713437   6.3244802   4.1802821
  33.8212919   7.1067303   4.2235801  32.4797273   6.5611857   4.6635473
   3.9764756   3.3917218  37.1415448   3.2809967   3.1191671  37.7400899
   4.1263840   4.3133062  37.3523569  96.7822361  94.0900326  29.7664499
  96.7180824  94.7180080  29.0468884  95.9120178  93.6946201  29.8175573
  85.4688644   9.5946300  65.9984398  85.0148869  10.4367089  66.0306454
  86.3981533   9.8222482  66.0277081  47.2499895  24.5746636  84.6747303
  48.0469036  24.2583990  84.2491341  47.5607967  25.0287914  85.4579258
 103.9089870  75.7903576  33.0638695 104.6243572  75.5141878  33.6367607
 104.1644573  75.4801226  32.1951222   0.8036979  96.1340427   2.0196348
   1.2674074  96.0740948   2.8548664   1.4961469  96.2501049   1.3690393
  97.0888805  86.8746376  10.9735680  96.4505005  87.1412086  10.3120172
  97.4316692  86.0403347  10.6531525  99.5630074  81.0312366   2.1875565
  98.6179638  81.1499310   2.2825971  99.6547031  80.1940346   1.7326704
  52.2543049  20.9805155  27.6336622  52.2643471  21.8000269  27.1391606
  52.9110718  20.4330540  27.2033405  84.2612553 104.2218876   8.3474708
  84.4108295 104.6609783   9.1847628  84.2527962 103.2895660   8.5640949
  21.4390087  30.9724259  81.4090538  20.5727243  30.5719209  81.4823818
  21.8539810  30.8021045  82.2546387 102.1831512  89.1149235   6.7153609
 101.9373894  89.7711372   7.3674452 103.1121445  88.9515972   6.8782759
  31.1983776   1.6206960  20.9940362  30.2872300   1.5028434  21.2626481
  31.4543605   2.4597743  21.3769889  47.9283142  49.9190855  91.7692471
  48.8649321  50.0264931  91.6036129  47.8845501  49.4582748  92.6070881
  85.0218582 101.4367771  21.5186691  85.7557106 101.9977665  21.7696285
  85.1506138 100.6338215  22.0235682 108.9416313 103.4017754  10.5636513
 108.4323978 102.7369690  11.0272741 109.3368149 102.9318333   9.8293400
 106.6219807  11.4024496  46.4857769 107.2242641  10.7546437  46.8516111
 106.0301971  10.8933401  45.9318590  97.3955917  55.7852507  86.7091179
  98.0229473  55.1213455  86.4229584  96.5386868  55.3906393  86.5471840
  79.9792957  25.7979560  76.6037750  79.7948647  26.7364740  76.6412449
  80.4246616  25.6746674  75.7655096  43.9415836  68.0839157   9.2727834
  43.1337833  68.0919600   8.7593395  44.2227125  68.9987135   9.2913330
  52.0027113  32.4196434  82.6333141  52.6473379  32.6749611  83.2932377
  51.5627480  33.2369447  82.3994732 109.6606731  61.4311361  14.8795509
 109.1874027  60.9581232  14.1950762 110.5734634  61.4191723  14.5916295
  92.2822380  33.8473606  65.5607939  91.8134785  34.1301060  64.7755861
  93.0741501  33.4250784  65.2279425   1.5879139  53.6771154  89.9381161
   1.6635467  53.6291265  88.9851189   0.6453221  53.6668873  90.1043987
 106.3458252  81.9753456   0.5019243 106.5487766  81.6549683   1.3807857
 106.9804478  81.5373039  -0.0651748  40.2940702  24.3319607   5.5502784
  40.4985380  24.4411945   4.6215734  41.1357117  24.4345808   5.9945089
  17.6479781  81.9034386  34.6897912  17.3642349  82.1809483  33.8187528
  16.8580234  81.9577217  35.2276182  76.9065475  17.9344904  75.1560163
  77.5585985  18.0556035  74.4658041  76.4145279  18.7554753  75.1674175
  91.3618946  31.0621691  72.3180532  90.7357121  31.2311029  71.6140699
  92.1975422  31.3808084  71.9768906 102.7622509  97.0056534  35.4429269
 103.6035538  97.1923828  35.0262976 102.2738266  96.5107346  34.7851062
 111.2848759  55.0780964  16.6220081 111.8646908  55.0318956  17.3822200
 111.6024685  55.8313179  16.1239874  45.2772617  28.3997893  70.0986910
  45.0445175  27.7271652  69.4586611  45.9655952  27.9980302  70.6288004
  11.7838073  92.5371456  14.9377871  11.2270021  92.0481682  14.3318939
  12.4424529  91.9035053  15.2222514  84.3711758  37.3821259  69.0632153
  84.8229122  38.1683540  68.7565947  83.4635639  37.5032306  68.7842941
  35.2726173 104.2190075  90.9380054  34.5262146 103.7803364  91.3462734
  34.9193621 104.5902729  90.1295567  64.7784615  84.2671680  24.5182323
  64.4232988  84.4876671  23.6571455  64.1576910  84.6495628  25.1384401
  97.8225613  49.0465593  84.9661064  96.9529629  49.2295313  84.6103477
  97.7549362  48.1596231  85.3196621 102.6733208  19.5809853  41.0322237
 101.7233562  19.5811868  40.9147692 103.0166435  19.9259984  40.2080059
  91.2092590  60.7767820  10.0048196  91.0907459  61.0450411  10.9159851
  90.3272057  60.7938480   9.6334505  66.7264605 100.2434635   3.4919077
  66.7989111 101.0688877   3.9711308  67.6309824  99.9503708   3.3815756
  86.5377712  52.0383263  78.5320854  86.5519524  51.0956907  78.6978292
  85.6291008  52.2266006  78.2973576  63.0715132  69.0481329  11.3782167
  63.8249683  68.6590624  10.9341872  63.4424591  69.7587824  11.9012880
   7.6377487  96.1787605   0.8100828   8.1789410  95.4282761   1.0552540
   7.6996285  96.7731380   1.5578243  36.3613915  87.8589249  89.8136806
  36.4962077  88.6830521  90.2815151  35.4102182  87.7719402  89.7509670
 103.3234787  76.3797140  13.0544567 102.7385044  76.8028927  13.6829066
 102.7363396  75.9509802  12.4318171  35.5364490  26.0973310  84.8247242
  35.3421617  27.0090365  84.6072865  35.1262021  25.9621644  85.6789303
 112.3292160 104.3407726   2.5850296 112.2750950 105.1954460   2.1574193
 113.0665779 103.9052677   2.1574095  70.4157829  85.5245113   9.0674013
  70.8504486  86.3761902   9.0233707  70.7323551  85.0538921   8.2963413
  43.5746431  15.6782889  57.3128748  44.0624332  15.7242155  58.1351757
  43.0922031  16.5041125  57.2741318  90.7355785  91.7915344   6.1551666
  90.7155132  92.5655937   5.5924475  89.8389435  91.4570808   6.1345017
  12.3016870  26.5382314  70.8820486  12.1049428  26.5808606  71.8178415
  11.6407561  25.9449244  70.5251312  47.1739769  11.3835800  87.4582767
  47.0550966  12.2545147  87.8371906  47.2345543  10.7996821  88.2143402
  78.8645172 105.8662796  12.0918703  79.0415382 106.0215569  13.0196548
  79.5980120 105.3277111  11.7949498  64.5917273  10.6135988  76.0326242
  65.1921177  10.5883932  75.2875566  65.0865984  10.2220213  76.7523479
  71.8150997   5.7893801  56.7064953  71.5019608   5.0298381  57.1976900
  71.1404562   6.4552873  56.8393707  84.7990799  66.4723158  19.6770298
  84.0409565  66.1455011  19.1926074  85.5544662  66.1567020  19.1810334
  73.7323332  57.0523500  90.2252102  73.9827299  57.6892757  89.5559883
  73.0442953  57.4897957  90.7266808  66.0221386 105.9679985  13.6109388
  66.0552740 106.7628670  14.1432226  66.8905973 105.9101009  13.2126200
  56.0106468  57.8628683  13.3964121  55.1707125  57.9570055  13.8457251
  56.6651630  58.0265522  14.0754128 105.7635784  69.3271351   5.2376753
 104.8823452  69.5465755   4.9351907 106.3013458  70.0721598   4.9694023
  78.3951139  13.0778110  91.2137794  77.8576326  13.7965727  91.5465450
  77.9015017  12.7345467  90.4689693  62.0286179  16.6794705  83.0590820
  61.7769194  17.5981903  82.9650784  62.8949213  16.7088115  83.4651375
   3.2503578   6.7965674  79.4620752   2.3289859   6.8293911  79.7194242
   3.6457697   7.5559992  79.8900270  78.3508205  97.2815990  11.5838552
  77.7401352  97.2770882  10.8467841  78.0056953  96.6213894  12.1848905
  75.9835339  29.0669823  74.9405956  75.6078815  29.0706825  74.0601969
  75.7318592  29.9125576  75.3119373  95.2826786  50.7058096  19.5834005
  95.2569389  49.8401690  19.1756785  95.9502316  51.1829567  19.0905094
  64.6366453 106.2649059  83.3881569  64.5948887 105.3308964  83.1829453
  63.9283180 106.6546249  82.8756905  39.5069146  19.0184975  29.6735907
  40.0106859  19.3817532  30.4019403  39.6890926  18.0792022  29.7012806
 112.9443264  13.8996696  74.8886251 113.7623978  13.4603536  75.1209641
 113.2195187  14.6765304  74.4018126  36.1427450  23.7968183  91.7742729
  35.9166026  22.9710650  91.3462353  35.3768516  24.0073133  92.3084450
  75.4706287  21.3577819  85.2680016  76.1939096  21.6326261  84.7044849
  74.7417927  21.9247794  85.0159168  10.1509082   6.4775699  23.7014484
  10.3914046   6.7204809  24.5955348   9.2781669   6.8509322  23.5783458
  85.3846741   1.7642860  69.3339062  84.7700787   1.8978564  70.0554800
  86.2442112   1.9434382  69.7151232  26.4204502  45.9650087  62.0491934
  26.7023873  45.1844454  62.5261259  27.1817017  46.2131882  61.5246582
  63.3167076  79.0312576  76.9368219  62.4756479  79.4185019  77.1795034
  63.1381035  78.0932570  76.8698883  99.9092007   7.8976673  67.2112274
  99.1866207   8.0679739  66.6069937  99.4827175   7.6286000  68.0248308
  55.6577110  34.3930244  90.5366516  56.2062073  34.3504500  91.3199615
  54.9669456  33.7490249  90.6926537  61.8506908   1.7546618  22.2179008
  61.9680071   1.0421817  22.8462648  62.7075386   2.1790974  22.1743226
 100.0816727  25.0996184   0.0523790 100.0695038  24.5761585   0.8536740
  99.3380070  24.7763228  -0.4562249  68.1232977  21.6474056  23.5391164
  68.1071949  22.5395703  23.8855433  67.3433781  21.5907097  22.9870796
  80.4876041  77.0118475  38.2797050  81.3362408  77.0373249  38.7217450
  79.8526382  76.8969345  38.9867020  75.8847427  71.8005514  73.7111759
  76.4932728  72.4779177  74.0063047  75.1975632  71.7891502  74.3774271
   6.2254119 106.5615273   7.2306931   5.6440276 106.8643475   6.5331811
   7.1070057 106.7239952   6.8950921  33.7543321  27.0786381   4.3213320
  34.5432138  27.0145226   3.7830138  34.0635109  26.9409585   5.2167004
  72.6838970  79.0597725  70.8502293  73.1074953  78.9303970  71.6987896
  72.5680351  78.1753159  70.5030394  12.8795540  35.3782368  74.5418310
  12.3012698  34.8526049  73.9890814  13.7501526  35.0069642  74.3988323
  78.3154488  51.0074377  87.5458145  77.7978516  51.3772392  88.2610512
  78.9465475  51.6931868  87.3274326 103.3962440  63.3320665  73.8230371
 104.2906666  63.0178404  73.9553547 102.9655361  63.1906891  74.6660900
  53.3055925  37.1004772   3.9115834  53.9854431  37.7516079   4.0849730
  52.8817844  37.4046016   3.1090087  91.2413883  28.0691504  29.5083308
  91.5405273  27.3503923  28.9514375  91.9069386  28.1345057  30.1931691
   2.2572728  50.3444481  32.0840096   2.9236796  49.6688652  32.2093844
   2.6791015  50.9959316  31.5237737 112.3874378  32.8996491  78.5430574
 112.4554920  32.2894073  77.8087521 113.2163906  32.8035903  79.0119314
  16.9155812  96.4168453  20.3997302  17.8104722  96.0814095  20.4533982
  16.3660693  95.6745625  20.6513023  88.3208942  67.2378969  54.8276043
  87.4155140  67.3510218  55.1169538  88.7726402  66.8764019  55.5901480
  75.8112574   5.1796699  34.3863773  76.4598942   5.4356021  35.0421214
  75.0576639   4.8844245  34.8974156   2.0976263 105.7974434  10.2872038
   1.6408083 104.9886894  10.0559640   2.9944167 105.6618500   9.9812382
  86.8867302  68.5264826  66.9968843  87.1433926  69.4457865  67.0692587
  87.1257019  68.2807350  66.1031675  31.2726545  78.8962603   5.3774875
  31.4458466  79.1888475   4.4827098  32.0335937  79.1914797   5.8775330
  78.3155012  58.8578701  89.1387558  78.6688948  59.5063257  88.5297775
  77.7547169  59.3628979  89.7275639 100.7611275  65.2180910  24.6955776
  99.8249531  65.0261116  24.7498512 100.9027290  65.9057236  25.3462267
  87.2853947  19.3662882  82.3411655  86.4212036  19.0308213  82.5796604
  87.5735283  19.8553610  83.1118870  21.7368507  95.3009701   7.9739904
  21.1863399  95.2091026   8.7516338  22.4282718  95.9070015   8.2402426
 108.0737209   6.0481679  57.5494051 107.3346424   5.8447754  58.1226683
 108.7462711   5.4111820  57.7905655   8.0530041  92.9244137  31.0925531
   7.4344659  93.2511997  30.4392123   7.7606308  93.3154678  31.9158530
  39.5127559  26.3989401  24.1438675  39.1292191  27.2222757  23.8417935
  40.2480745  26.6654754  24.6956801  25.6601787 102.5114059  26.8736386
  24.9628711 102.4929810  26.2181568  25.2938175 103.0173683  27.5989103
  67.0819569   7.3889118  13.3243394  67.2426033   7.9153025  12.5411820
  66.1315680   7.2772175  13.3470535  82.0016766  61.9923353  81.4945889
  82.8510380  61.5581846  81.5741539  82.1894455  62.8001690  81.0166931
  30.5414486  18.8751876  21.1746407  31.1952829  19.2196774  21.7829680
  30.8203483  19.1952753  20.3167439  15.9934011 107.4515490  23.9454818
  16.8202510 107.0019431  23.7710977  15.3701034 107.0499868  23.3401060
  31.0983658  60.7391119  19.7931886  31.7413235  60.1050043  20.1105881
  31.5945506  61.3102722  19.2068338 104.0263176  59.8222446  91.4398384
 103.1308556  60.1500559  91.3566780 104.4978619  60.2261496  90.7113171
  56.6620970  26.4573288  35.6991267  56.6269970  26.6357970  36.6388869
  56.9176149  27.2919345  35.3062153  95.4276180  89.8783207   9.4405544
  96.3250256  90.2033710   9.3681067  95.4964924  89.1088486  10.0057173
  10.5407858 103.6959457   6.1169332  10.9715724 104.4791222   6.4593911
  11.0478103 102.9675293   6.4755130 105.1560307  47.1826982  76.1282206
 105.0560856  47.8171110  76.8379831 104.3030262  46.7523479  76.0697556
  44.4374371  42.8603792   7.5546968  45.2834511  42.6506329   7.9502988
  44.3284225  42.2082376   6.8625534  15.7715857  96.0684299   8.7069982
  16.7123079  95.9267139   8.8127804  15.6124985  96.9254208   9.1025805
 109.0970325  24.5768905  74.5869684 109.2471790  24.7995543  75.5057240
 108.1446457  24.5267487  74.5052242  46.1020947  10.1199102   5.6676424
  46.5152407   9.8423463   4.8500252  46.8297625  10.2219903   6.2810856
 105.3193092  80.3537464  70.6753206 106.0619545  80.1082230  71.2270594
 105.6990051  80.9129333  69.9975538  81.9285393  54.3099308  77.0988846
  82.4930191  54.4463396  76.3379669  81.6777515  55.1922941  77.3723221
  40.8233356 104.4459152   2.9443911  40.5259132 104.5965290   2.0471245
  40.0439882 104.5870209   3.4819210  53.7827969  85.7959366  78.6397552
  52.8622770  85.7903099  78.3773851  53.8942957  86.6252232  79.1046095
   2.7579591  29.4888496  70.7695150   2.1552178  29.5432305  70.0279093
   2.6487330  30.3216982  71.2284994  95.8720589  14.2697549  84.7411251
  95.9631157  13.8095081  83.9067936  96.0887241  15.1796341  84.5376301
  96.9784832  62.8723955  92.3746204  96.2594032  62.2553253  92.2390652
  96.6730785  63.6873579  91.9761276  64.9906158  59.3416882  85.1587963
  64.2644072  58.8714457  85.5683327  64.5687437  60.0033760  84.6106815
 105.5057812 105.2431393   8.0270213 105.0837231 104.4181633   8.2668483
 106.1625290 104.9958038   7.3760712 112.7864933  79.1260481  18.9043903
 112.0681095  78.4945154  18.9406824 112.5076962  79.7687244  18.2521093
  71.9224072  73.5100508  88.3009624  71.5709209  74.4000912  88.2781219
  71.1652374  72.9491329  88.1327534 103.1155491  27.3610902  91.8299103
 102.8262520  26.5316105  91.4497757 103.1732845  27.1868229  92.7693367
  91.7154217  72.7718067  75.3340626  90.8774281  73.0997324  75.0077963
  92.2675133  73.5508156  75.4017067  10.7145286  50.3447294  86.7392445
  11.2956691  50.4931784  85.9932804  11.3013697  50.1020622  87.4554634
  75.1469946  23.0625486  73.3237553  76.0859871  23.1914163  73.1898880
  74.8309851  22.7183199  72.4883604   7.4979639  78.2522821   7.0396417
   7.1839917  77.6781940   7.7382660   7.9605675  78.9547157   7.4966031
 103.2329845 100.1205349  20.7672548 104.0451717 100.6264973  20.7916832
 103.4192753  99.3972874  20.1685429  83.4131527  64.6744061  84.5950127
  84.2940140  64.3891048  84.3522549  83.4733295  65.6288290  84.6360874
  72.1798801  25.9968901  74.4381571  71.7317104  25.1782131  74.2256880
  72.2550678  26.4532638  73.6001205  88.5202789  92.0823002  45.1506090
  88.6547279  92.8557396  44.6029329  89.2201614  92.1255970  45.8021688
  82.5330162  44.1631317  78.9120674  81.5889931  44.0170956  78.8509798
  82.9216003  43.3229017  78.6686659  48.5522652  26.6046524   4.2869481
  48.7934780  27.5288820   4.2249534  47.8948879  26.5747929   4.9820724
   0.4039144  87.4600601  76.6545391  -0.0688219  86.9868279  77.3392344
   0.3402853  88.3799171  76.9115305  67.6828527  46.5775824  88.8481903
  66.8109703  46.2053061  88.9803314  68.2751799  45.9567261  89.2723560
  77.7392435  23.4144568  80.7954979  77.9493284  24.0440941  80.1058292
  77.7612782  23.9276838  81.6031837  99.4642544  43.4209681  59.7806692
  98.6654282  43.7461567  59.3655062  99.5890427  43.9911032  60.5393505
  92.5048542  63.3150005  89.7397041  92.4023724  63.6110544  88.8352299
  93.4501839  63.2176161  89.8541927  95.1069927  43.1432629  77.8778601
  95.3961086  42.7165461  77.0712852  95.8761406  43.6242151  78.1833553
   9.2210436 101.9456005   4.7221678   9.9212384 101.4219570   4.3326041
   9.6771568 102.6436806   5.1921403 110.0477505  53.8011599  77.7244234
 109.6977043  53.6256123  78.5978556 110.0972462  52.9403400  77.3087645
  87.0461941  35.2437925  87.3727226  86.8455219  36.0180235  87.8985786
  87.9472542  35.0218415  87.6073837  83.6211777 102.8870201   4.0803632
  83.4026527 102.0257568   4.4363111  82.8028297 103.2023144   3.6967862
  77.8739405   2.0892660   3.7023568  78.2031679   2.1076950   2.8037450
  78.6361217   2.3016131   4.2410794 106.8075848 101.8597126  33.3314037
 107.3552036 101.3611221  33.9378238 106.7649269 101.3159561  32.5448012
  67.0377493  66.4663172  81.1652851  66.9875669  67.0093870  81.9519138
  67.5151110  67.0037842  80.5332279  89.9233627 106.7519474  12.7943635
  89.3095779 106.0549927  13.0262268  89.8429966 106.8355751  11.8442178
  99.7638512  99.4233799  23.1195045  99.7205830  99.3251133  22.1683455
 100.6047344  99.0358353  23.3623147 100.2258968  85.0914764  24.5710969
 101.0861778  84.8241425  24.2475581 100.1641369  84.6972942  25.4411793
  90.3744984  56.1761570  64.4305658  89.5180130  56.0426188  64.0245867
  90.9696102  56.3155413  63.6939240   5.5503321  73.9843082  89.3304443
   4.7896111  74.5556068  89.4360447   5.3200465  73.1879187  89.8089409
  48.2605934   2.4792790  24.0822649  47.9223585   3.3456969  23.8561034
  47.8423786   2.2693722  24.9172878  15.3557026  68.9500856   5.3806227
  15.0121963  68.4643602   6.1304933  14.5782292  69.2992735   4.9449214
  34.2151332  90.1550007  19.1893780  33.5685968  90.8600998  19.2217970
  35.0066757  90.5713272  18.8482618  44.6913481  31.4806652  71.2630415
  44.9869871  31.5016747  72.1731949  44.6920300  30.5516744  71.0323715
  24.8560119  22.4832535  82.1863842  24.2474890  22.9482818  81.6122055
  24.6452999  21.5581608  82.0597458 113.2201481  91.9114590  13.9476585
 113.6365318  92.0263767  14.8018539 113.9360428  91.6600323  13.3641219
  28.1101990  35.5566525   8.6306638  27.4347258  35.2709126   9.2457390
  27.9214740  35.0734758   7.8262037  79.0448475   8.1096137  82.7227211
  78.3127928   7.9033566  83.3039188  79.1058254   9.0646327  82.7439880
  77.7730894  38.7631989  88.8808250  78.1458616  37.9332995  89.1783714
  78.0952740  39.4094491  89.5091438  76.5212774  32.1299434  73.7346125
  76.2724018  32.3825788  72.8455305  75.7916594  32.4236393  74.2801666
  12.2244096  77.4728775   2.0953958  12.3463273  77.0229530   2.9314193
  11.2966943  77.7083063   2.0831574  11.4955568 104.9502373  19.9183333
  11.3095462 104.0391064  19.6914732  12.0341492 105.2719116  19.1953695
  82.1981716  64.5387220  74.5194054  83.0243587  64.8542213  74.1531944
  82.2387123  63.5878038  74.4176674  95.2650261  66.7444658  80.9616852
  95.9823799  67.0181227  81.5332985  95.0911999  67.5090790  80.4127026
  17.6761758  89.3673992  19.7237396  17.4006891  88.7934017  19.0089917
  17.0918357  90.1230907  19.6628428  11.6156590  95.9787941   0.9414630
  10.8995163  95.4293823   1.2600736  11.3380218  96.8730831   1.1399685
  95.6412411  68.6606121  88.4326458  95.9850216  67.9001570  87.9638672
  95.8209229  68.4751415  89.3543530  60.2892780  30.9099698  38.5525727
  61.1006975  31.4174199  38.5706449  59.7991037  31.2683296  37.8126144
  12.5964069  95.1606369   9.7951061  12.4060500  95.0848770   8.8600886
  12.9558778  94.3069077  10.0362837  48.7487364  41.9666195  85.6250668
  48.2187366  41.5648699  84.9366379  49.1905642  42.6968765  85.1917744
  80.0212955  16.4304149   4.2961869  80.7902718  16.7451215   4.7714400
  79.3491888  16.3269007   4.9698272  53.3105183 103.5447407   8.6955148
  53.2084179 102.7008247   9.1355330  53.9913225 103.9948177   9.1956776
  97.9469490 106.0139847  59.6419239  97.1748543 105.6228542  59.2331266
  98.4987259 105.2673531  59.8749685  83.3287811  38.6127138  82.8262520
  82.9580402  39.4950676  82.8109837  84.0823460  38.6593342  82.2378635
  85.4533109  52.2359900  92.5187564  86.1768702  51.6619829  92.2673395
  85.2656677  52.0008520  93.4274536  11.6048658   5.1630270  17.0025122
  11.7533994   5.5905807  17.8459382  12.4677467   4.8407704  16.7420912
  92.5423717  52.7242422  74.9411774  93.4857178  52.8051710  75.0817871
  92.4336338  52.8051758  73.9936209  70.1846504  23.9879298  47.6135778
  69.8981047  23.7430573  46.7337132  71.0807371  24.3027639  47.4946928
 110.0444031  72.0857096   2.4933814 109.1761589  72.4808311   2.4142179
 110.5840111  72.5652838   1.8648392 108.7052155  80.2443600  28.2227969
 108.7395859  79.3187523  27.9813623 108.8257599  80.2488422  29.1723657
 102.3739529  82.4197674  81.5380669 102.6282215  82.8270626  82.3661327
 101.4170265  82.4110985  81.5593052 107.5886154  47.6619339  63.6975288
 108.3996296  47.7318239  64.2011118 107.1242619  48.4795666  63.8766336
  30.1701450  84.1615868  15.8203065  30.9330678  83.8541889  15.3307259
  29.4199109  83.8178253  15.3353274  29.6027493  11.1838770  24.7105169
  28.8742280  10.9294522  24.1441607  29.4351625  12.1031916  24.9179029
  73.1131506  82.4139977  80.9250641  73.1260967  83.1861973  80.3595829
  73.2845974  81.6811371  80.3336525  10.6816995  85.2620220  17.0773625
  11.6191065  85.1852417  17.2551346  10.5199802  86.2049961  17.0477653
 105.6569004 102.9859257  14.8462498 106.5426826 103.1600952  14.5279741
 105.0866890 103.4514618  14.2343891  23.9004445  90.6087971   3.4724423
  24.2737889  89.7418499   3.6313447  22.9585195  90.4544258   3.4004894
   7.0039934  32.6298738  23.5772800   6.9709712  33.0709314  22.7283907
   6.9000787  31.7014074  23.3689904  20.1584339   2.5608665  35.7435846
  20.0470901   1.6132689  35.6668210  20.6854105   2.8025860  34.9819422
  18.9501584   2.6651949   2.4914753  18.3438659   2.7370828   1.7542693
  18.5216689   2.0589888   3.0957457  96.6208076  60.6712818  87.5931263
  97.1884060  60.9190893  86.8632984  97.1561813  60.0807428  88.1231022
  45.7159185  27.5152183  86.2535191  46.1434507  27.4297619  85.4013824
  45.3522682  28.4006476  86.2513256  20.0106621   0.7741912  29.4320679
  20.2316928   0.6925950  28.5043192  20.0085688  -0.1258628  29.7578454
  75.4277420  53.8603067  90.9005833  76.1229563  53.8321686  90.2432346
  74.7113466  53.3573580  90.5132294  95.3717995  92.9880619  20.8753753
  95.3035736  93.4095860  20.0186968  94.9052715  93.5760021  21.4694381
  40.3953934  21.5203023  41.9729996  40.7972860  22.1571302  41.3820934
  39.9192500  20.9242964  41.3948154  72.0774555  60.7858324  86.9919109
  71.7374945  60.1217413  87.5916100  71.4464808  61.5035343  87.0466900
 113.2584953  72.8410721  91.3924122 113.1518841  73.3207893  92.2138405
 113.2028389  71.9193125  91.6444016  88.8121414  66.3419294  33.0831218
  89.2164135  66.7049456  32.2950768  88.2479095  65.6390762  32.7608180
  11.2660921  11.1459756   8.4611452  11.5521955  11.1056614   7.5485927
  11.1680663  12.0811307   8.6403286  83.8759136  76.1178541  75.1696825
  84.8287296  76.1017942  75.0795555  83.7251472  76.4174509  76.0661983
  96.5822792  98.7395000  20.3871679  96.5590763  97.8660202  19.9963474
  97.5143814  98.9300632  20.4925227  70.3075886  50.2233696  81.9775677
  70.2922249  50.8025980  82.7394676  70.4888201  49.3560457  82.3396873
   3.4513560  88.7631035   3.6273071   2.5905588  88.5539913   3.9899793
   3.3603606  88.6044979   2.6877353  91.4515400  46.4377928  88.7990093
  91.2960529  46.0768080  87.9262257  91.7223454  47.3419237  88.6394978
  71.5423012  43.0621481  31.0743046  71.5476418  43.4728622  31.9388962
  71.6122580  43.7938261  30.4611301  69.2233610  42.1824789  90.1525021
  68.5651779  41.6152382  90.5540848  70.0585413  41.8513823  90.4827785
  38.8175130   7.1021360  20.0832963  39.5750785   7.3567891  19.5565343
  38.7661171   7.7697235  20.7673407 104.1682529  91.8725014  83.0166531
 105.1013374  92.0607090  82.9158401 104.1408920  90.9980202  83.4049511
  44.2614031  13.7038422  39.3725538  44.3244886  13.7493002  40.3265905
  43.7011719  14.4424307  39.1341019  23.8271713  95.0846100  23.0144548
  23.6727142  95.8040810  22.4023008  24.7595739  95.1433849  23.2227874
 113.4709039 105.2336884  61.8307734 113.4128286 104.2855644  61.7127705
 113.7075317 105.5686474  60.9658813  61.8540192   6.6142917   6.2113923
  61.4859295   6.6975814   5.3317291  61.0908604   6.5385759   6.7841822
  82.6390457  21.0145235  10.7041764  81.9328880  20.4083061  10.9279203
  82.9877663  21.2983751  11.5491939  34.1090393  89.2226791  15.6167626
  34.1550326  88.2672119  15.6513226  33.1920505  89.4251919  15.8021116
   8.9902806  43.0925751  61.1433697   9.3437195  43.4240484  61.9688606
   9.7030222  43.2065964  60.5146933  57.8223848  82.8424168  58.9357090
  58.2552338  83.5226345  59.4516420  58.4207869  82.6772213  58.2071066
  31.3851070  91.4954376   3.3793136  32.2938156  91.6359138   3.6453003
  31.3329625  90.5585194   3.1903610  82.3423004  50.6094170  88.0040646
  82.6910210  50.0817156  88.7225056  81.5739822  50.1249504  87.7020454
   6.6565007  66.5653086  64.9396992   7.2001827  66.9726706  65.6140137
   7.1528959  65.7942629  64.6652746  11.8438148   9.3028194  22.2789097
  12.5123310   9.9855351  22.3356271  12.3383737   8.4833091  22.2720575
  79.1782379  32.2468376  24.1914201  78.8717175  32.1270823  25.0902724
  78.3781385  32.3629999  23.6789918  87.9966354  99.9019909   8.3152759
  88.1574535 100.7732010   8.6776966  87.0518780  99.7763252   8.4039849
  25.3420496 104.8623466  28.3921003  25.5800915 105.5757713  27.7999926
  24.8622537 105.2898598  29.1015100  82.5649166  72.7289152  88.7542248
  82.3937321  71.8167925  88.9886570  83.4849453  72.8656864  88.9802074
  79.7448540   1.9981906  71.3288927  80.2506638   2.0606288  70.5186510
  80.3999615   1.8399096  72.0086098  49.7092199   6.1782563  13.5847986
  50.3377390   5.5645341  13.2046080  49.4155979   6.7095780  12.8447211
  22.7224755  86.0115242   5.0576216  23.5105205  86.3794136   5.4574686
  23.0508256  85.4337215   4.3687364  93.5175991  41.1973715  71.7915821
  94.0834808  40.6585979  71.2386513  94.0257740  41.3364935  72.5907278
  16.6277206 104.6701527  14.5469224  16.3900709 105.5748463  14.3437386
  16.9746614 104.3232822  13.7250066  58.1587791  92.6250648  85.7293701
  57.6990986  93.4646702  85.7276917  58.8505602  92.7320576  86.3822269
  65.4649830  29.4269824   2.1968196  64.7060776  29.0800333   2.6657820
  66.1453819  29.5036125   2.8657091 111.0916996  49.1397381  76.1693621
 111.1173916  48.6949921  77.0165730 111.9310474  48.9267492  75.7614851
  57.7070808   4.7304505   1.2060522  58.1488466   4.7941449   0.3592828
  56.8443632   5.1169413   1.0557877  19.7551650  37.6221388   0.0025853
  18.9914626  38.1947821  -0.0685588  20.4712314  38.2074183   0.2494153
 112.5875664  90.2414131   4.2691138 111.7090893  89.8682117   4.3413728
 112.9505253  89.8477459   3.4756926  59.5195293  21.4007688  91.0547829
  58.5706854  21.2887883  91.1129570  59.6360207  22.2965026  90.7380486
 105.4431438  95.9096241  12.7928329 105.3625393  94.9983215  12.5113285
 105.1638508  96.4205742  12.0331240  48.6693525   2.7113590   2.8107139
  49.0326595   2.6461616   1.9275440  48.5675049   1.8031824   3.0954504
 111.5452576 106.4063263  16.2622428 112.4545956 106.4029217  16.5611124
 111.5631580 105.9247780  15.4351878  55.4374218  10.9790790  28.8054824
  56.0235834  10.3674448  28.3598876  55.7949591  11.0518527  29.6904159
  24.9031973  18.4090900   3.3034071  25.1322985  17.4855268   3.1996053
  25.1402974  18.6145008   4.2077422  72.3033237  39.7320962  85.0295639
  71.9593477  40.5479813  84.6659088  72.9967260  39.4729495  84.4227123
  69.1271257  33.0810404  89.8320007  69.6747494  33.0855632  89.0469360
  68.2313299  33.1377840  89.4994926   2.8993663  30.1666284  80.8052921
   3.1751958  29.9219942  79.9219418   3.4398460  30.9259582  81.0233021
  16.5030718 102.8310680   6.3377237  16.1674178 103.0984879   5.4821217
  17.3186183 102.3699284   6.1416036  94.3276978  34.3431211  83.8391972
  95.1709366  34.7953939  83.8640690  94.5552063  33.4142137  83.7992477
  96.7701626  73.8991356  78.0830240  96.9422150  74.5365763  78.7760592
  97.2650623  73.1224060  78.3437729  21.1478782 106.4028931  52.7710009
  20.3356791 105.9531689  52.5379467  21.4510226 105.9557152  53.5611725
  31.3830948  14.8921371  36.5991879  30.5780649  14.4201314  36.8121815
  32.0163441  14.5920551  37.2512460  58.8286638  40.8071136  84.5246887
  58.0315351  41.0677624  84.9860764  58.7222958  39.8677397  84.3746948
 102.5154686  93.0144501   7.8925127 102.9407978  92.6264095   7.1278220
 101.5859413  92.8187084   7.7746415  26.9903779  62.6724863  40.6257772
  27.8062654  63.1664038  40.5444860  26.5748668  62.7533865  39.7672701
  51.8484259  26.8574905  84.0868950  51.9600964  25.9663987  83.7556553
  51.2421751  27.2679925  83.4703064  31.9611001  75.0055122  14.0828085
  31.6713548  75.4524326  14.8781359  31.1851478  74.9862909  13.5226667
  31.4289427  81.3376999  35.1018643  30.9106636  81.8743610  35.7015395
  32.2804093  81.7734909  35.0654531  46.9575596  14.4903803   6.0556686
  46.4907742  13.9184988   6.6650069  46.3815498  14.5492876   5.2934527
  55.9739876   4.5192450  11.3956523  55.3476763   4.1533443  12.0202172
  56.5023422   3.7703142  11.1196494  66.7335510 100.6137562   6.9502795
  67.2457075 100.0220871   6.3990444  65.9839678 100.0895596   7.2323799
  31.3978744   2.6163989   8.2182366  31.4624810   2.8827718   9.1353536
  31.7501020   1.7265105   8.2019079  48.9894438   3.2758975   5.3215903
  49.0119505   2.9801127   4.4115150  48.9162827   4.2284420   5.2621073
  83.1828690  24.5174336   7.9970443  83.6611843  23.8332915   7.5286502
  83.8265228  24.8899579   8.5996807  60.3815079  24.9928474  49.4634724
  59.9768639  24.2413163  49.0302372  61.3024616  24.7488141  49.5558071
 106.9628620  85.0667477  26.4477992 107.4613094  85.8837032  26.4286566
 107.5284481  84.4519997  26.9151688  35.4589176  72.3987341  21.7228127
  35.2535653  72.8209019  22.5569820  34.6121621  72.3069096  21.2859988
  44.7426510   2.1089202   6.9961101  44.2805433   1.9927143   7.8262794
  44.0466928   2.2041212   6.3458717  93.2135201  87.9309368  12.6340437
  93.4081078  87.3250675  13.3490920  93.3992481  88.7970638  12.9967582
  67.8982878  74.8662376  76.7755842  67.3282814  74.9213409  77.5425816
  68.2617569  73.9814138  76.8103647  38.3494306  44.9787760   0.5429694
  37.5804090  45.4455948   0.8699515  38.8032484  44.6825981   1.3319936
  89.5071793  61.7865753  73.6734629  88.9931965  61.1813736  74.2080545
  89.9365616  61.2282085  73.0253172  68.5087252  38.0118442  91.6440773
  68.9553928  38.0500126  90.7983494  68.0654621  37.1634674  91.6427612
  15.3362072  39.8727894  73.3267021  15.6407464  38.9702153  73.2326508
  14.4078767  39.7908068  73.5451365   8.7687421  49.1343355  26.0752630
   9.4830263  49.4044876  25.4981613   8.7523502  49.7993469  26.7635393
  88.4998608  73.2587624  58.4925175  88.0212498  72.5397730  58.0799437
  89.3718719  72.9011774  58.6597681  49.0913057   7.5540340   0.1416226
  49.6115875   8.2567942   0.5310696  49.4079781   6.7573923   0.5674326
  75.7941151  35.9761047  88.8179779  76.2704372  35.7658815  89.6211910
  75.9220409  36.9177413  88.7031364  31.2655282 106.9464397  30.1065588
  30.7787037 106.2658787  30.5713892  30.7579517 107.7450275  30.2509689
  71.8549013  41.0547543  90.8204460  72.1166801  40.3896666  91.4571285
  71.8658352  40.5983734  89.9791241  78.3638048  62.8739548  90.5144310
  79.0117359  63.5255527  90.2464104  77.6618052  62.9545546  89.8687267
  56.0791159  48.1586313  22.0715308  55.1904583  48.4420156  22.2865105
  56.4858437  48.9277792  21.6725159   0.1284108  51.7269754  86.8638325
  -0.1001393  52.6255989  86.6261959   0.8573801  51.5041494  86.2848854
  92.5073051  43.7764072  92.4422169  92.6949692  44.6614599  92.1296597
  93.3627224  43.4213877  92.6840210 108.0471897  60.2188778  80.0654507
 107.9686069  61.1277533  80.3552914 108.9138031  59.9456120  80.3663254
   2.8409624  85.0057125  76.0249233   2.1846065  85.6904125  75.8960199
   3.6007890  85.3052807  75.5257654  43.0888462  28.9833641  33.2033753
  43.9761591  28.6962032  32.9878664  43.1952143  29.5219469  33.9874959
 102.4059868  83.5206318  90.5030918 101.4922428  83.4439373  90.7777119
 102.8954601  83.6073589  91.3210964 107.4851608  82.2292995  88.0745602
 106.6707802  82.4707222  88.5158348 107.9269981  81.6446209  88.6903191
  97.0995140  44.5491266  69.1991234  97.2034168  43.6202717  69.4056749
  96.7051411  44.9266672  69.9853563  57.1634436  18.9732218  72.8075933
  56.8226147  18.7643242  71.9378662  56.4318943  19.3975186  73.2559633
  85.8614254  19.4710159  29.3308806  85.8924007  19.7800624  30.2362895
  85.9676266  20.2628970  28.8037395  21.8273425  78.3644390  49.5407772
  21.9309807  77.8140354  48.7645388  20.8825588  78.4993792  49.6143055
   0.2596190  38.8310742  79.0344620   1.0330343  38.3173394  78.8017845
   0.2124275  39.5107865  78.3621550  53.9168787  18.5716128  16.3056326
  54.1017008  17.7660084  16.7884088  52.9916191  18.5028636  16.0702562
   3.9704448 103.2710075   1.1940207   4.2017105 102.3491669   1.0802031
   4.4095170 103.5298252   2.0042445 104.5458603  64.6627998  88.9662170
 104.8139477  64.1784716  88.1853294 103.6763191  65.0006247  88.7517548
  63.9057446  42.6455259   8.1223625  64.1223669  42.2396231   7.2829884
  64.3091202  43.5125589   8.0803180   2.2322330  70.5425930  75.4083109
   3.0947831  70.5690527  74.9941349   2.0188864  71.4604902  75.5761766
  35.9832621  32.1746397  41.7065668  35.1398611  31.7219806  41.7093134
  36.5660906  31.5922236  41.2193966  68.6612034  58.2188272  86.7214203
  69.4319391  57.8222466  87.1275234  68.7717628  59.1587305  86.8649101
  75.1113510  26.0511494  20.7750988  75.4857635  26.8309736  21.1848807
  75.3790092  25.3295755  21.3442397  77.8131437  69.0855980  90.4263115
  76.9995642  69.0873051  90.9306049  77.7886677  69.9033689  89.9294376
  42.7916765  13.4900081   9.0885419  42.1966743  13.1211412   8.4357476
  42.3981047  13.2578790   9.9296403  59.8726416  67.8751373  80.5596828
  59.3390608  67.2021532  80.9823132  60.1669693  67.4701118  79.7438669
   4.5831081  97.2730827  10.9665978   3.9770707  97.4952126  11.6734278
   4.0859020  97.4354076  10.1649308  91.4459801  69.8374128  88.1657505
  91.8985844  69.7397757  87.3279858  91.3507843  68.9426756  88.4922600
  94.8444366  21.4719152  17.2054577  94.5178318  21.7964005  18.0446672
  94.4560814  22.0569277  16.5549362  16.5205729  14.1479897   0.0629214
  16.9809997  14.4311953   0.8528795  15.6631982  13.8595104   0.3758446
  57.6955032  33.8110352  22.7197719  57.4946594  34.7460198  22.6785660
  58.6489439  33.7740016  22.7960181  76.7642355  62.9969978  92.8910732
  76.9612694  62.6663780  92.0146656  76.6480780  62.2100163  93.4234333
  59.6072054  15.3635085  13.1222773  60.2570724  14.6871841  12.9312491
  59.7914696  15.6247032  14.0245283  80.3253078  74.5175123  79.7421885
  80.3740978  73.5616112  79.7320175  80.1736164  74.7398329  80.6607723
  14.1593730  80.0449848  63.2439661  13.8188434  79.6324444  62.4501896
  13.3925653  80.4455853  63.6535549  61.8576431  84.7116852  69.1208744
  61.1311531  85.1833820  69.5282364  61.7433548  83.8046551  69.4045448
  98.9138317  78.0917025  68.8729811  98.9991570  77.5161171  69.6330166
  98.7127686  77.5013590  68.1468296  87.4822140  15.5620730   7.2317618
  87.8211403  15.7929564   8.0966657  87.9077339  14.7307432   7.0218682
  86.4836216  12.5432789   9.6566021  86.5254498  11.6922081  10.0926781
  85.8420849  12.4224353   8.9565623  97.1318150  69.1719818  79.1767645
  97.5978565  69.7860909  78.6093950  97.3561573  68.3083391  78.8303185
  33.7095046  19.9534571  26.5962505  34.6245837  20.0377345  26.3283658
  33.3629370  19.2502892  26.0469985  58.3547020  30.8595610  13.9336777
  57.7729511  30.1805019  13.5920990  59.0750837  30.3764129  14.3384588
 105.2498722   1.2962885  19.3285012 104.3691730   1.6636603  19.2534816
 105.1272011   0.3542311  19.2114091  30.3850865  21.9404936  15.8762074
  30.4089952  22.7622557  16.3664818  31.2353039  21.8978882  15.4385459
  37.1551156   8.8761157  10.2168167  38.0558825   8.5530812  10.2391791
  37.2099352   9.7058725   9.7427595  68.2793045  74.2833948  81.2656021
  67.3306227  74.3875885  81.1922455  68.6113310  75.1757145  81.3643646
  33.2611346   4.7191170  49.7825623  32.6042628   5.3857887  49.9833155
  33.7353492   4.5948997  50.6047058  89.6262455 103.0437279  45.9533644
  90.3093719 102.3815727  46.0588074  88.8075638 102.5673389  46.0913324
  73.2799196   4.6749574   6.9727224  72.3753500   4.9746922   7.0629895
  73.6204863   4.6684724   7.8672636  14.6453547  81.8598366  50.9191895
  15.2644944  81.3136959  51.4035797  14.2673361  82.4384403  51.5814257
   9.6707678 104.3146706  39.9030828   9.0704864 104.9455166  39.5056915
   9.2086643 103.4780884  39.8499656  44.9489689   7.1887934  23.4552598
  45.2956963   8.0507243  23.6856627  44.2500353   7.0341045  24.0907097
   7.8760999   7.4639827  53.6858177   7.9600036   8.3800912  53.4213638
   8.2742065   7.4283415  54.5555735  22.1626067 100.7065392  12.0391333
  22.5153875 100.2920341  12.8265071  21.6356635 100.0234604  11.6244507
  70.3799725  15.0909507  28.1878424  69.9385691  15.5946326  28.8717270
  70.0662327  15.4734492  27.3683953  97.3483086  11.8215644  16.0458684
  97.1180916  12.7468550  15.9617996  98.2808971  11.8254209  16.2615097
  19.4005990  10.0256872  19.4421375  19.9815845   9.5535719  18.8456511
  18.7222922   9.3896383  19.6692383  84.0243912  27.8340960  75.1626635
  83.7445354  27.1565223  74.5471954  83.8699722  28.6572385  74.6991777
  53.6995602  72.2203207  83.3399677  53.3693075  72.6406002  82.5459099
  53.1175041  72.5292015  84.0342617  22.2259378  11.0255408   0.6127536
  21.3559198  10.6519961   0.7533532  22.7351093  10.7387197   1.3708490
  40.8068105  57.6852698  93.1753373  39.8644000  57.5213108  93.2101509
  41.0506382  57.4899540  92.2705547  78.2588434   8.8458014   7.1858323
  77.5517750   9.2403448   6.6753149  78.1519270   9.2100954   8.0645192
  10.6513047  51.1487198  74.2013121  10.5736637  50.2002478  74.3042850
  10.3800321  51.3146257  73.2984734  31.0649991   5.7046676  16.5166986
  31.8144894   5.4531974  17.0563817  30.7828546   6.5459341  16.8757200
  87.6633453  72.3866177  89.9362564  88.1304359  72.2047472  89.1207981
  87.6565361  71.5494108  90.4002190  92.3651505  92.9343796  23.4003353
  92.8628063  92.1189308  23.4604597  93.0299759  93.6227322  23.4202671
  43.3077478  42.9453230  16.3515973  42.5333786  43.0069160  16.9108725
  42.9987192  43.2087278  15.4847896  67.8925133  51.9036436  13.4529519
  68.0482769  52.4754190  14.2046463  67.4335718  51.1472940  13.8183761
  80.1146698  61.0687065  87.0634937  80.0559330  61.9701099  86.7468643
  80.0755119  60.5334187  86.2709332  78.6202860  73.4137249  76.6635466
  79.2656612  74.1176033  76.7289543  78.5113001  73.2753658  75.7226944
  53.2818890  14.8610234  37.5624466  52.6705790  14.5021260  36.9192338
  53.8399029  15.4531026  37.0581746  68.4689951  39.0889883  23.1259513
  69.2307281  38.5192275  23.2325673  68.5350800  39.7147036  23.8473010
 100.8152390  52.3733091  86.0735226 100.0281906  52.6558876  86.5392876
 100.5074024  51.6944742  85.4729748  56.7684126  36.6892314  76.7053652
  56.9798756  36.5395975  75.7838869  56.0008430  37.2607780  76.6852093
  86.8516636  53.3880329  90.0712681  86.1717701  53.1033659  90.6819534
  87.6481152  53.4271145  90.6007767  42.8131342  25.7719278  39.5221281
  41.9632006  25.9236670  39.9354386  42.6012945  25.3723812  38.6784959
  81.5505695  36.4892101  11.6195142  80.8970928  36.9731736  11.1145616
  81.1570168  36.3883972  12.4862242  38.1968451  13.9012992  25.2166581
  37.2752762  14.1333950  25.3310061  38.5242105  14.5301986  24.5735812
  97.6559544  49.0229893  80.2836227  97.4374676  48.1220579  80.0452614
  98.5974407  49.0037394  80.4552269 113.1868839  57.9750299  85.2163219
 113.9512730  57.7175522  84.7009087 112.6788425  57.1692371  85.3102112
  85.2541065  56.2552452  86.4805031  85.8997536  55.9856844  87.1337318
  85.7721806  56.6582823  85.7837963  82.0396233  61.8715191  73.6928368
  81.3298607  62.0137167  73.0665255  82.5644684  61.1712027  73.3051109
  59.2231369  70.2807331  91.4232349  59.5156145  69.8018074  92.1986771
  59.9138880  70.1347208  90.7768726  44.8600769 103.7207413  12.3244953
  44.4666672 104.0455437  11.5145791  45.5394030 104.3615341  12.5345659
 102.3743343  66.0533237  84.4688320 101.8229866  65.3305101  84.7684860
 103.1949615  65.9437084  84.9492359  71.0003328  41.9266176   6.3451904
  71.5328407  42.6179695   5.9518683  71.6156769  41.2104559   6.5023488
  39.4861317   8.9344287  79.5226860  39.4444776   8.0440062  79.1739082
  39.2455792   8.8420641  80.4445553  86.8243599  90.3734875  64.2769337
  87.2865105  90.4568386  63.4428453  87.3817062  89.8003387  64.8033333
 100.9010601  87.6477909  92.2990131 100.5448914  86.8045139  92.0192623
 101.1466789  87.5123215  93.2141876  36.2871575   0.7577668   4.7865796
  35.4000545   0.6553149   5.1312280  36.6080976   1.5655038   5.1875669
  64.6502447  48.3879375  91.8223000  64.5692539  47.6064825  92.3691082
  65.5836582  48.5989857  91.8428993  40.4870462  10.4450440   6.5729761
  41.3640785  10.1049113   6.3958961  39.9043417   9.8816943   6.0637367
  65.2268648  98.1369781  68.3312321  65.0354958  97.2926044  67.9230118
  64.5663309  98.2260513  69.0182495  58.0657434  89.8155403  84.9720955
  58.0040884  90.7330036  85.2379513  58.9621544  89.5621109  85.1922131
  95.1137924  73.5177135  92.6011562  94.6912670  73.6183310  93.4541416
  95.8172131  72.8870869  92.7552128   5.0022393  96.6473675   0.5922915
   4.8599139  96.1380577   1.3901527   5.9472698  96.7978001   0.5695570
  15.2713847  91.7890930  13.3860576  14.8079801  92.4451447  13.9067161
  15.2896011  91.0106659  13.9427912  60.2292585  32.0030212  42.2650719
  61.1473465  31.7974615  42.0887280  59.9904299  31.4279866  42.9920673
  20.8211136   8.8965505  57.8439140  21.6991329   8.7360674  57.4981403
  20.3463745   9.2970335  57.1155834   0.7912735  67.3119879  86.4998913
   1.6365203  66.9008160  86.3189888   0.3672157  67.3743868  85.6440258
  64.8115969  44.0727091   4.8192242  64.5591545  44.6039677   5.5743849
  65.3585243  44.6532774   4.2900309  64.8153734  12.4171019  28.6978650
  65.5003452  12.4298477  28.0293679  64.7734833  13.3192360  29.0150881
  41.0631466  78.1415367  40.2013206  41.8465900  77.9190826  40.7042742
  41.1934566  79.0549517  39.9465108  66.3304520  11.7230082   5.0251532
  66.6487312  11.2145793   4.2792124  65.7624102  12.3883116   4.6366546
  74.3832684  82.0528889  51.8653202  74.8243904  82.3268986  52.6694107
  73.4623289  81.9713402  52.1132183  85.1758385  61.4922428  61.0831642
  84.9790955  62.4249125  60.9957027  85.9436321  61.4619207  61.6539574
  40.4070473  22.1454716  36.0568833  41.2060022  21.8748641  36.5092921
  40.7175255  22.6087546  35.2789354  85.9120750  66.4208269  84.5741081
  86.8211746  66.1863899  84.3875504  85.8666897  66.4626122  85.5293179
  91.5838909  49.4562960  82.2114658  90.7490444  49.8916340  82.3839092
  91.4964771  49.1145086  81.3216496  35.8984447  12.3730898  25.1371074
  36.8210196  12.5203264  24.9287510  35.8390307  11.4335942  25.3104568
  55.4138231   1.6760902  15.6575918  55.1793051   2.1070635  16.4794767
  56.3703585   1.7048313  15.6365192 106.2544060  98.1767941  77.2756243
 105.5308628  98.6035538  77.7345371 105.8349323  97.6947975  76.5629196
  54.8504877   1.0669430   2.0268084  55.7080698   1.4917608   2.0091106
  54.9898386   0.2670820   2.5337940  57.9488754  16.5493202   5.3316426
  58.6306047  17.2151923   5.4215991  57.7246618  16.3129759   6.2316990
 112.3498058  77.7746534  78.2429838 112.1785355  78.1387424  77.3744583
 113.0082130  78.3573627  78.6213827  30.8228135  14.0166354  24.7252345
  31.4783335  13.8891935  25.4110074  31.1571598  14.7489691  24.2074203
  88.9728069  70.3602695  76.0232544  89.0952492  70.3014946  76.9707727
  89.8593140  70.4432106  75.6718874  94.8023987  91.9433689  70.1717424
  95.4355335  92.1049023  69.4722557  94.6446037  92.8058147  70.5558300
  67.9987526  21.4691329  11.1904728  67.2520685  21.4880037  10.5918574
  67.8453732  20.7009506  11.7405641  93.8862896  78.6903429  61.5968800
  93.7642002  79.5905972  61.2954187  94.3012142  78.2446432  60.8583498
  18.2185769  71.0561943  81.4228439  18.7255156  71.8680811  81.4323711
  18.8315928  70.3948164  81.1018848  75.1997375  35.7421970  19.4587314
  74.6620131  35.4655504  18.7167418  75.1195335  35.0287700  20.0918365
 113.1593418  97.7451897  88.1837749 112.7821636  98.1310081  88.9744186
 112.5743866  98.0233479  87.4790192  91.5038395  69.9307299  69.3180895
  92.3562431  70.3638840  69.3630266  90.9705639  70.3830624  69.9717283
  49.8339701  41.9098520  80.5790138  49.6761465  42.7743149  80.1994991
  50.5055714  42.0593977  81.2444592  83.9622784  72.2581148  68.3301783
  83.8155460  72.4723339  69.2514849  84.5053673  71.4701748  68.3510447
  43.4555101  86.0977173  89.4259930  44.2153263  85.7164478  89.8659325
  43.8271046  86.7310429  88.8119507  88.3373451  31.3396263  12.2713280
  88.7602997  32.0952725  12.6791787  87.7966118  31.7142057  11.5759659
 100.9557247  89.5069408   4.4383201 101.4526558  89.3528843   5.2417862
 100.2227306  90.0583267   4.7120503  52.7971315  26.3368106   1.2614740
  52.7213717  26.7529726   2.1201378  52.1412086  26.7788291   0.7223801
  42.3246193  71.8085241  63.3754063  42.6095533  72.6317167  62.9786682
  42.3637009  71.1723280  62.6612949  99.8908138  82.7405453  91.8807125
  99.7863483  82.2137070  92.6730251  99.9406910  82.0994759  91.1716461
  98.4370518  46.4432096  91.2898827  97.9406452  45.6258774  91.2477589
  98.4962082  46.7346764  90.3800583   9.6236748  89.2269802  90.3843307
   9.7098577  90.0293827  89.8695850  10.1795304  88.5918903  89.9327660
   9.5369804  90.1624203  24.2660046   9.5395279  89.2142677  24.1347575
   8.8284236  90.4798126  23.7061453  96.8443394  86.5348721  30.8856750
  97.3544502  86.1995888  31.6229725  96.2566757  85.8156300  30.6542277
  93.0663490  82.5384712  53.2362700  93.0794716  83.4949398  53.2713747
  92.4293995  82.2830200  53.9035606  30.8220387  42.5045681  30.7470036
  31.4058304  41.8264961  30.4069543  30.7877445  42.3405361  31.6894197
  16.0714912  97.9773045  15.9435248  16.0408974  97.0211601  15.9106123
  15.1566529  98.2489204  15.8691514  57.5954771  21.1666560   5.1696521
  57.2543430  22.0608163   5.1512688  56.8598700  20.6237888   4.8860830
 109.2857361  45.1506758  88.3079147 108.8835526  45.4135990  89.1357708
 110.1606750  44.8487473  88.5519314  11.3055444  61.8695974  72.0280123
  12.1470809  61.7167807  71.5982533  10.7690394  61.1171913  71.7784595
  50.6950903  88.9428234   5.0545770  50.2865744  89.8084259   5.0634438
  51.6153955  89.1143417   4.8549601 113.6646461  58.0154037  65.3701258
 113.0839157  58.0564976  64.6103287 113.6754894  57.0897293  65.6135130
  99.1113758  88.8634491  23.7617588  99.9546909  89.3155479  23.7871480
  99.2033195  88.1494141  24.3925810  93.9109039  73.1434536  78.7427855
  93.7831211  73.0467415  79.6864748  94.8169613  73.4387636  78.6528063
  57.0584011  14.5725501  11.8945706  57.9051495  14.4828987  12.3318493
  56.5481663  13.8245082  12.2049356  64.4469547   6.7097461  13.4397364
  64.0725803   7.5770766  13.5940480  63.7505245   6.1009961  13.6859906
  30.8921981   6.5633667  33.7525988  31.0798573   7.0479143  34.5564818
  31.3178730   7.0712680  33.0618954   8.3346224  80.0598526  91.8991756
   7.5266337  80.4675198  92.2109413   8.1932980  79.1214848  92.0245457
  71.3603878   3.8325432  19.2644370  72.2895813   4.0027398  19.4189048
  71.0392952   4.6265081  18.8369405 101.4506721  60.6669760  72.8046942
 102.3779392  60.5134916  72.6234579 101.0323048  60.6494999  71.9439411
  58.0646896  10.5847239  42.9903984  58.5648918  10.5590546  43.8060999
  58.0766678  11.5060234  42.7309847  61.9336843  13.0855930  19.8659492
  62.1675539  14.0104198  19.9448800  60.9817600  13.0869901  19.7655606
  53.6173439  23.8507199   1.6819601  53.2540512  24.7203422   1.5145947
  53.9539051  23.5642791   0.8328960  61.5284681  39.7378087   1.7358464
  61.5346098  40.6731129   1.5323725  60.6081676  39.4837618   1.6670425
   1.4030647 100.0078487  15.9714031   2.0188752 100.2077675  15.2663910
   0.7494640  99.4391632  15.5644250 109.3484974  80.8183193  12.5440669
 109.3791485  79.8892164  12.7722478 108.4161472  81.0090351  12.4411762
  92.4443626  28.6953115  35.6805444  91.6366196  29.1510773  35.4437637
  92.9693127  29.3567848  36.1312246  81.7119884  85.6129456  91.1776352
  80.8344460  85.4675770  91.5312195  81.9234467  84.7994900  90.7195950
 101.8478203  62.4704456  42.6011896 101.6205025  61.5450811  42.6920557
 102.1341705  62.5585890  41.6920900 109.3164825  89.0231419  13.2890177
 110.0658607  88.6167908  13.7243903 109.5457649  89.0144920  12.3597229
 103.2612610  51.0681200   2.7471146 103.8875675  51.4094162   3.3854574
 103.7516689  50.4049683   2.2613607  24.0921569  76.3390541  51.9342661
  24.4244814  76.7179012  51.1204672  24.8022103  76.4636946  52.5639629
  69.9437714  69.6885014  46.1009026  69.4746971  69.9642038  46.8884230
  69.7051048  70.3385401  45.4400539  63.3217573  16.4349616  27.5293922
  64.1796494  16.7377627  27.2317958  63.4796619  15.5478168  27.8523016
 102.1246624  55.5770779  78.9023256 102.6092434  56.2294626  79.4081020
 101.7384052  55.0010824  79.5620680  74.1611576  34.3443155   2.1547607
  74.1534996  33.4244800   1.8900427  75.0897884  34.5683050   2.2156318
  72.6836395   3.1697673   3.8513237  72.6482391   3.9483610   3.2956526
  73.0740881   3.4769827   4.6694928  98.3239365  80.1525211  55.9231663
  98.4111881  79.6913433  55.0889397  98.9137363  79.6876287  56.5166712
  47.9160643  10.8072579  20.5811238  48.1271076  10.2653515  21.3414049
  47.9036903  11.7020726  20.9208083  46.5084028   7.4458659   3.6541641
  46.4916801   8.1056184   2.9608542  46.5912390   6.6127944   3.1900924
  91.0841656  54.2300081  79.3275404  91.3132000  55.1237392  79.5825291
  90.5917549  54.3320465  78.5130787 111.9673157  72.6400089  80.2519798
 112.8443527  72.8105021  79.9085140 112.0929813  72.5523186  81.1968327
  91.6751385  39.4483781  30.3479838  91.0930252  40.1099968  30.7216597
  92.5369644  39.8648143  30.3396893  59.3247986   5.0615495  11.0404456
  58.6600065   5.4405844  10.4654539  59.9787807   5.7534969  11.1391783
  29.1558671 102.9094601   5.0839734  28.8046646 102.7850437   5.9656823
  28.5979414 102.3682594   4.5253557  61.3902092  94.5104694  17.0296991
  62.2302294  94.5439720  16.5720093  61.5366030  93.9030266  17.7548230
  29.4756675 104.4279861  23.6247277  28.9705205 105.1250553  24.0432525
  30.2662444 104.8634148  23.3059406 111.6273975  79.3319941  52.0744133
 112.2649860  78.8187313  52.5706720 112.1568584  79.8511124  51.4690876
  56.5895939  25.6710386  22.6743102  56.4928579  25.1781511  23.4891319
  57.3507214  25.2790666  22.2462082  87.4742603  32.7639580  36.6734147
  86.5249348  32.7050328  36.7808723  87.6178932  32.6317000  35.7363391
  32.5887084 102.0409679  43.7891245  32.0911813 102.0030117  44.6059847
  32.2287321 101.3319588  43.2562637 111.7665863  85.4610634  89.5179462
 111.0073757  85.7565880  89.0154648 111.8431950  84.5297146  89.3107033
  59.7299814  13.1950784  24.5442867  59.2986488  14.0495133  24.5332050
  59.5847750  12.8649557  25.4309464  13.3555150  47.8752565  78.2967234
  12.6326430  47.5974369  77.7341366  13.7509394  48.6127329  77.8319645
  51.2696171  26.5180349  27.0899034  50.4385138  26.6809559  27.5359440
  51.8614435  27.1868491  27.4343729  83.9806843  55.3755045  84.1665554
  84.1653156  54.4463348  84.0295029  84.6465397  55.6623650  84.7915268
   6.4414656  75.7715178  17.0821702   5.8249849  76.3676262  16.6569245
   7.2980106  76.1773109  16.9484031   1.8697627  96.3095284  21.0072970
   2.0587404  96.8106842  21.8006229   1.3336842  96.8971443  20.4748011
  88.3232689  47.2691965  75.4985189  87.6527119  47.9351616  75.3466320
  88.2272148  47.0389986  76.4226484  94.4839859  71.7285347  75.4812908
  93.5921860  72.0348072  75.6460190  94.7008038  71.1987066  76.2484312
 103.7993145 103.1200027  45.2602339 102.8854847 103.2931805  45.0340748
 103.8323593 103.2137775  46.2122536  81.2020683  41.4892340  89.8372269
  80.4621124  41.6762686  90.4149055  80.8582878  40.8590841  89.2040157
   9.9788010  64.1635036  33.9366436   9.2087579  64.3694258  34.4666052
   9.6936512  64.3064880  33.0341601  41.1576223  96.4630127  10.7769728
  41.4369011  96.6881561  11.6644120  41.1994553  97.2894382  10.2958119
 110.3577232  51.9188499  92.3922634 109.7004032  52.2607040  91.7862129
 111.1754799  51.9393730  91.8951893  97.9598236  45.0618696  55.8447838
  98.8941479  45.2661037  55.8842373  97.9123974  44.2554855  55.3312445
 100.2425098  69.0404081  79.3040419  99.4119930  68.8184404  79.7249937
 100.6918812  68.2012463  79.2035151  78.9307165  86.4095116  73.0960417
  79.8442173  86.3457870  72.8173065  78.5396719  85.5782795  72.8270054
  37.4497366  62.7716684   4.3415856  37.4800229  62.4980783   3.4248179
  37.4488783  63.7282133   4.3061724  41.5730524  31.4230275  15.9761465
  40.8489895  32.0483470  15.9454596  41.8418694  31.4127493  16.8947661
  99.9376011  74.5623922  63.2657290  99.1214085  74.1011143  63.0726624
 100.6067848  74.0775156  62.7826929  18.0811548  73.5335255  47.5125694
  17.1393085  73.4606218  47.3581553  18.4660769  73.5607386  46.6365957
  89.7817707  45.6587601  73.2864237  89.2589474  46.4134121  73.5573292
  90.1957226  45.9352398  72.4688482   5.0338376  53.7311172  72.8910732
   4.9025136  53.0970573  73.5960245   4.2231387  54.2396927  72.8722620
   4.9780715  93.0588341  83.3310986   4.5223320  93.5172749  82.6251507
   5.3486770  92.2820568  82.9121685  26.1758041  31.9840288   5.2969420
  25.8369446  32.1707773   4.4214249  26.5737700  31.1169052   5.2198142
  45.4116535  12.7441108   7.4530101  44.5281029  12.8180802   7.8136963
  45.5031967  11.8173599   7.2316843  15.8429074 103.1314373  10.2779913
  16.2948680 103.4614563  11.0545516  14.9865866 103.5586071  10.2996027
  17.8961623  85.6130219  67.0526648  18.7872398  85.5806065  66.7045784
  17.9687977  85.2415466  67.9318428  18.9991641  84.0659142  83.9087296
  19.7140777  84.2123127  84.5281696  19.0908074  83.1490421  83.6495495
  67.2883654  70.1143122  65.8208370  66.7354250  69.8711157  65.0783110
  66.6844320  70.5084801  66.4502287  36.3461876  21.3541174   2.7635282
  36.2191129  22.0495534   3.4088603  37.2919464  21.3327527   2.6175234
  72.6116705  83.8762760  19.3737495  73.3023024  84.2945385  19.8878682
  71.9457483  84.5559120  19.2694652  77.3502445  66.9936514  82.2306061
  76.6140699  66.7402649  81.6737556  77.9748869  66.2735224  82.1441936
  91.7176342  19.4648206   6.1586583  91.0255432  20.0382996   5.8294725
  91.4066029  19.1836035   7.0191264   0.7872387  82.5656414  80.6275272
   1.2766263  82.5289822  79.8057079   0.0240503  83.1077671  80.4278374
  94.5679665  83.0200958  80.4541969  94.3532467  82.8245449  79.5421267
  95.3954887  82.5644207  80.6084442   7.4017513  75.5745125  76.6647863
   8.2634461  75.4407406  76.2700510   7.2395474  74.7734356  77.1629763
  71.2047768  51.1355925  16.5195239  71.4981985  52.0438242  16.4470279
  71.0758543  50.9997463  17.4582231   4.0542707  73.2319880  79.0069532
   3.9567873  73.8779497  78.3073330   3.2033661  73.2233858  79.4452667
  50.7471275  94.5830631  13.4383881  50.1181412  94.3291283  12.7630162
  50.6944036  95.5383587  13.4677529  71.3489199  25.4247689  20.2015948
  70.6023502  25.7567596  20.7002425  72.0900488  25.4975629  20.8029747
  35.9855437   2.6692602  90.4837132  36.7065120   2.3918219  89.9184990
  36.4132690   3.1034106  91.2218189  62.4314356  36.0086274  21.9562173
  62.0528889  36.5917730  22.6141500  63.3438492  35.9035802  22.2258329
  44.7264194  43.7962818  25.4719186  44.2638302  43.5203266  24.6806622
  44.6558952  44.7508812  25.4699707  11.7097151  56.5717411  71.5824986
  12.2008693  55.7637596  71.7313623  12.2734928  57.0928669  71.0108185
 103.5017490  65.1243496  61.0966492 103.0035210  64.8934889  61.8806839
 102.8637791  65.5505943  60.5243397  18.8868725  41.4786100  61.7117548
  19.0629661  41.6300344  60.7831573  17.9401588  41.3448572  61.7573071
  70.2798700  28.4537673  24.7201538  71.0799122  28.1020308  24.3297124
  70.4890728  28.5500956  25.6492329  77.4809742  64.8808479  21.5394068
  76.5875912  64.5372725  21.5471601  77.9931831  64.2061853  21.0936427
  67.2323465 102.5025082   4.8678678  68.1029129 102.6212120   5.2476799
  66.7682409 101.9532871   5.4996872  97.5343513  90.8389950  91.7062187
  98.3986664  91.1137104  91.4000797  97.7154446  90.2583790  92.4453545
   0.4913950  47.6724243  92.1480751  -0.3200865  47.3479271  92.5384903
   1.0953379  46.9316578  92.2004509 109.1944885  47.9869127  73.6962986
 109.6173477  48.4637165  74.4104958 108.3596516  47.6963806  74.0635395
  59.3383217   4.1035220  25.9581828  58.5169792   3.8280722  25.5510521
  59.3435621   3.6636600  26.8083167  45.8693171  17.1511102   6.8517864
  45.1006126  16.6858006   7.1816504  46.5648794  16.9350147   7.4728572
  65.2720928  20.9521604  18.4403706  64.4355106  21.3401628  18.1838298
  65.7849360  20.9328175  17.6323795  74.3761158  20.0786209  15.7127821
  73.9139128  20.1992345  14.8832929  75.2441549  20.4518843  15.5597615
   3.2804602  87.4856663  74.7169447   3.4755206  87.8925323  73.8727617
   3.0063066  88.2129097  75.2756786  16.3195765  78.6208200  57.3364735
  17.1312201  78.8844204  57.7700424  15.6308258  78.8391113  57.9643297
 104.5496941  99.6871853  87.3868370 104.9752712 100.0321198  88.1717777
 105.2733135  99.4364452  86.8126106  14.4436836   9.3233073   8.9841622
  14.0021014   9.8582011   9.6438026  15.3270531   9.6882367   8.9320445
  53.0009747  57.2356653  16.5585518  53.8455629  57.1144819  16.9923949
  53.0293608  56.6412497  15.8088207   6.5125519  73.6022902  86.6805649
   6.3030809  72.6801062  86.5324593   6.4276761  73.7181854  87.6269245
  67.2744560  20.7808948  33.3090091  66.7253685  21.5263200  33.0659580
  66.6854620  20.0272870  33.2716012  70.8072710  31.7514968  12.8262222
  70.3104925  32.0234275  12.0545387  70.8325815  32.5306940  13.3815980
  99.4209576  39.3399739   1.3378002  98.7516212  38.7934732   0.9260254
  98.9704704  40.1605034   1.5378460  98.8078499 102.2667408  21.0262895
  99.4172478 101.5924072  20.7260370  99.3589783 103.0321693  21.1893964
  10.7443178  77.6423168  89.9042320  10.8871019  78.0458260  90.7604027
   9.8395610  77.3312473  89.9339485  58.1187487  76.9393587  77.0116138
  58.5780716  77.7548790  76.8111801  58.8104820  76.3345528  77.2798395
  28.1922960  34.0307093  25.5059195  29.1157484  33.8875747  25.2985978
  27.7752542  34.1726947  24.6561265  48.6616898  22.1666598  19.6943462
  49.3404722  21.8843985  19.0813088  48.7867928  21.6101861  20.4630589
  21.2470889  67.7847815  85.3156281  21.9904375  68.2460260  84.9271488
  20.4776073  68.2410955  84.9751759  67.9162931  17.5805914   6.8034697
  67.7032423  17.3633647   5.8959150  67.2112751  18.1652308   7.0816499
  75.7885933   9.3809479   5.0123531  75.0756836   9.9838310   5.2233523
  75.6582451   8.6395901   5.6036478  43.9717340  11.9465685   3.6460873
  43.4289122  11.3463712   3.1348777  44.6511078  11.3899457   4.0266842
 110.2986813  63.9418936  72.9132843 111.1746788  63.6827040  73.1990957
 109.7111416  63.5590792  73.5648060  59.4836283  44.8288298  20.4060817
  59.8965073  44.0395689  20.7565570  60.1476526  45.5109930  20.5058956
 107.2011852  77.8236389  84.5343971 107.6808929  78.6309004  84.3488121
 107.8355885  77.1254110  84.3723774  34.3369222   0.5552115  77.4870872
  34.1654515   0.9434340  78.3450556  34.2863965  -0.3888336  77.6369476
   4.8658940  70.6565475  79.2182350   4.6932191  70.5284977  80.1509857
   4.6020415  71.5607262  79.0477276  49.6996593  19.3519819  13.8570309
  50.2474165  19.2645633  13.0769336  50.0450659  18.6997378  14.4665420
   9.9811637  38.4335995  78.0639410  10.3244531  37.7817845  77.4527788
   9.1645157  38.0526090  78.3866882  18.3017910  63.5137177  72.1362925
  18.0045974  63.0937767  72.9434824  17.6218164  63.3078623  71.4948177
  92.5554371  43.5236931  82.8433037  93.3860016  43.4944010  82.3683929
  92.0444393  42.8019857  82.4769020  25.5248761   3.3742455  68.0115509
  25.2673411   2.6325768  67.4639750  25.4105663   3.0606982  68.9086866
  61.6691828  13.5876679  37.3665929  61.7183161  13.1503558  36.5165472
  62.3890543  13.2101989  37.8720975  29.4746590 107.0107555  21.4798689
  29.3935037 107.5948238  22.2338676  28.6916494 106.4614391  21.5170431
  83.9565372  36.3578463   2.1418369  83.1384087  35.9791756   2.4635437
  84.1370869  35.8836555   1.3301842  20.2831459   5.0975192  36.7461538
  20.0712013   4.1791576  36.5790534  20.5132937   5.4504335  35.8866692
   4.1840869  67.7590460  92.6335757   3.3523684  68.1574780  92.3771838
   4.2395812  67.9070050  93.5776413  48.6960840  52.9003716   2.3480476
  48.0050611  53.5238743   2.1245170  48.5935593  52.7563000   3.2887727
  81.0733128   0.6575577   1.1220836  80.9313202  -0.2522256   0.8606175
  81.6937065   0.9979694   0.4775209  96.4612865  85.8394814  73.1358576
  97.2802353  85.9776402  73.6117411  95.9713936  86.6522026  73.2612038
  68.9798975  20.1547980   1.0457288  69.6345615  19.4776106   1.2162190
  69.3540239  20.9503531   1.4243506  91.9903564   6.9449443  82.8899860
  91.4651203   7.6605821  83.2480717  92.3192692   7.2827941  82.0569801
  87.3986912  69.5465231  80.1479244  87.7486324  68.8202477  79.6318913
  86.6280365  69.8373175  79.6603251   7.7092671  82.3856163  70.4098845
   8.2405567  83.1661892  70.5669403   7.0710623  82.6588821  69.7509050
  88.3604622  70.4869461  85.0074196  87.5203133  70.4100800  85.4596043
  88.1279850  70.7141590  84.1071033  30.2740312 104.2903423   2.5395808
  30.0029588 103.6956787   3.2389498  29.5469737 104.9070740   2.4543695
  18.8403308  68.9301586  77.5387764  19.4877803  68.9304209  78.2437897
  18.4272623  68.0683947  77.5932598  89.3822002  26.6289711  19.8607945
  89.0150738  27.0905662  20.6147051  88.8646603  26.9362855  19.1165209
  63.5176516  33.7230635  17.0919359  62.7725983  33.1839561  16.8264341
  64.2786503  33.2833409  16.7127812 110.0031185  91.2284946  81.9516754
 109.2691422  90.7161522  81.6125584 110.7380009  90.6152821  81.9636154
   1.6489318  54.0433455  86.8526173   2.2916448  54.6707106  86.5216064
   1.9939190  53.1884909  86.5948772 113.4233379  59.4386101  67.7103186
 113.2154465  59.0580416  66.8569803 113.6571693  58.6882401  68.2566643
  23.9030051  74.8015404  66.7488289  23.6386609  74.6226740  65.8464098
  23.8657975  73.9491463  67.1827316  66.2286901  27.3716474  18.6789584
  66.1573172  28.0207920  19.3787789  65.6224060  26.6763878  18.9344430
  30.8491039  85.7271671  71.4427090  30.2250218  86.1800861  70.8755970
  30.9631538  84.8683929  71.0356092  43.1827641 102.7640152   2.9172096
  42.2656012 102.9933739   2.7674142  43.2823133 102.7841568   3.8690054
 106.6635323  78.1126356  21.4781237 107.5539875  77.8244114  21.6787457
 106.7799473  78.9264631  20.9878564  43.2719898   4.4888616  89.7457409
  43.6873960   5.0607771  90.3911781  43.9005041   4.4446886  89.0251541
 103.7362003  50.4347467  17.7418125 104.3553257  51.1557865  17.8559268
 103.8959122  50.1204967  16.8518841  64.2563677  10.6731951  70.0311470
  64.6460295  11.3016391  69.4233179  63.3746862  10.5245566  69.6894264
  24.6474934   1.4801680  91.4042377  24.1362977   2.2613817  91.6154575
  24.4411159   0.8620786  92.1053791  42.2403002  91.9700623  83.4459972
  42.2594595  92.8993320  83.6747646  43.1603003  91.7058754  83.4399700
  95.0036716  27.2995162  80.2831841  94.9697113  27.9164362  79.5520926
  95.8957863  26.9531512  80.2630520  58.0880976  42.8209591  10.1636827
  57.6663113  42.1639299  10.7174408  57.5166273  43.5865688  10.2227879
  86.6511345   2.1491639  90.6350231  87.4801826   1.9043419  90.2239609
  86.7219543   3.0937141  90.7730198  11.5920842  99.4674015  91.0207653
  12.5395310  99.3311501  91.0170841  11.4615071 100.2266979  91.5887928
  87.7678490  76.1582804   8.3312964  87.7837849  76.9577980   7.8052288
  88.6885929  75.9778786   8.5208249 109.9225426  23.6335301  67.4509573
 109.9644089  24.2181087  68.2077599 109.0239811  23.7183833  67.1321869
  86.1460876  63.1302929  19.7536314  85.6994247  63.2761526  18.9196932
  86.6319656  62.3155451  19.6258080  96.2057686  33.7017155   7.5447077
  95.4909134  33.5663843   8.1667233  96.9544029  33.2542896   7.9391545
  44.3140841  13.5423017  71.2815857  44.5232582  14.0343058  70.4875994
  45.0411177  12.9276752  71.3810062  70.7568169   1.6454397  80.9087086
  71.3869095   1.2298618  81.4973640  69.9103880   1.5224543  81.3384342
  34.2779040  86.5788937  86.6625500  34.3979883  87.3446655  86.1009407
  33.4449792  86.7362213  87.1072006  60.6291389  20.4415917  87.8040600
  61.4366627  20.4651070  88.3174610  60.8737564  20.8115506  86.9558144
  19.8719966 105.4016972  91.1748028  19.9335563 106.0668564  91.8603802
  20.7612109 105.0563622  91.0956001  23.1923914  18.6929870  84.4056702
  22.3076558  18.5161769  84.7253799  23.7207127  17.9744363  84.7532272
  27.0097923  72.9350853  80.8881950  26.3884473  73.4039259  80.3311062
  26.4855814  72.2561407  81.3130093  72.6381159  69.1872215  46.2478209
  71.7463398  69.0108681  45.9480333  73.1904745  68.6353922  45.6940937
  14.6772599  84.8179913  76.2235737  15.4872441  84.3233967  76.0989523
  14.1204166  84.2385674  76.7435980  76.9139957  57.2541189   8.7138969
  77.4475527  58.0453777   8.7877667  77.5490665  56.5383196   8.6905253
  16.7874742  95.9649467  84.1706657  16.0914934  96.1732960  83.5474205
  17.1265984  96.8170929  84.4446850  42.1043825  23.5878944  78.9884758
  41.3173008  23.9942932  78.6257410  41.7742109  22.9384661  79.6093273
  19.6787536  40.8482218   2.8633624  19.2262292  40.0057173   2.9038811
  20.3581738  40.7235432   2.2007352  44.2446232  84.4799423  91.8987846
  44.5109510  85.0879383  92.5884533  43.3081102  84.6420002  91.7851448
  50.2892494  18.2280302  75.3825426  49.3639994  18.0481172  75.2158976
  50.6813669  17.3646724  75.5132723  39.3400216  78.5848141  44.1786194
  39.8736286  79.3654728  44.3271828  39.1137671  78.6226416  43.2493162
  56.6863441  22.0506406  91.0624981  56.9721174  22.9475427  91.2360859
  56.6990471  21.9756460  90.1083279  38.8272023   8.4904134  91.5470695
  38.3013296   8.1930006  90.8046150  38.3793020   8.1358606  92.3151207
   2.6058856  71.5247202  83.5665512   1.6691096  71.3281202  83.5719967
   2.8403109  71.5994692  84.4915867  33.6590624  91.0404968  75.3551102
  33.9391685  91.8542290  74.9360323  34.3576026  90.8389568  75.9777260
  44.3481016  93.2765579  88.8801575  43.5389662  92.8610992  88.5819435
  44.0588856  93.9487076  89.4972515 105.6322289  50.9057808  10.7920063
 105.9944820  51.7497587  10.5223715 105.7746601  50.3323984  10.0388920
  88.8102436  69.5745230   4.4932991  88.6681557  69.9346018   5.3687334
  88.4834671  70.2509880   3.9001369 106.8763447  92.7080822  17.3660803
 106.9311810  92.4208069  18.2775056 107.7621841  92.5887203  17.0236218
  98.7365818 102.6122284  79.0284061  97.8550243 102.3581982  79.3014574
  98.6586952 103.5381985  78.7987661 101.9625187  93.1991196  71.8414307
 101.2265778  93.5104847  71.3144779 102.2995186  93.9855766  72.2705507
  85.9072590  11.6072190  86.1070347  85.4262352  12.3186600  85.6843090
  85.4437542  10.8132493  85.8405685  30.5480242  97.3096943  77.2006035
  30.0440550  98.0089951  77.6167965  29.9008536  96.8140984  76.6988182
  96.5495300  68.2690430  34.9977946  96.9243717  69.1489697  35.0358367
  95.9053516  68.3134604  34.2911887  38.3966446  13.0437839  45.4384327
  38.9253092  13.6237609  44.8903751  37.5543475  12.9896295  44.9869490
  56.9175577  22.5667953  86.2440205  57.5802612  22.2331738  86.8487930
  56.0941839  22.1978354  86.5636444  52.5189161  83.2703400  92.8827858
  52.6974392  82.9415035  92.0017529  51.9278431  82.6218319  93.2652855
  10.9600973  99.8249531  71.0716867  10.9055889 100.0321674  70.1387787
  10.1155913 100.1007366  71.4280367  38.3151364  95.0093842  74.0956020
  38.0317664  94.1608906  73.7550306  39.0567732  94.8034954  74.6646500
  96.9198227 105.8348751  47.5030661  96.5345001 105.1767159  46.9246340
  96.1722183 106.2166500  47.9630327  61.4148378   3.0832076  46.8884373
  60.6683922   2.6619706  46.4622831  61.0571814   3.4377286  47.7024555
  78.4714079  21.4031529  83.9368534  78.6403656  22.3170090  84.1660976
  78.6064053  20.9224582  84.7535133  39.7713590  85.8260345  73.0553913
  40.1240396  85.0731182  72.5810766  40.3655910  86.5447712  72.8396845
  93.1148815  56.8358803  10.6856799  93.7459660  56.3955736  11.2549758
  93.4463882  56.6867924   9.8001802 113.3767033  52.1213484  12.7710354
 112.5481796  52.5292397  13.0228341 113.7918377  52.7602148  12.1916056
   9.6626669  77.9438972  75.5651093  10.3347194  77.6246595  74.9628925
   8.8500023  77.9020834  75.0610685  33.0385804  55.6774902  81.5021515
  33.1043530  56.0228157  82.3924637  32.1090341  55.7495165  81.2853813
  45.8731556  18.5887635  62.5983047  45.9938049  18.7682819  63.5307455
  45.9169626  17.6349807  62.5303936  83.2950401  75.1387691  10.0908232
  84.0718269  74.6008539   9.9376339  83.3958340  75.4548264  10.9886992
  26.6842294 100.9240055  52.2725248  26.1983085 101.5896130  52.7594376
  27.0032644 100.3211784  52.9441214  14.7208917  99.0208435  11.7311108
  15.3487134  98.9171028  11.0160506  14.4581282  98.1269932  11.9506967
  72.9981518  39.8064566  80.2216721  73.2008648  39.1750288  79.5314312
  73.1630564  40.6601286  79.8213196  28.3249593 102.9183292  90.9617519
  29.2052698 103.2297993  91.1721516  28.1809044 103.1997299  90.0582600
  87.2591001  48.1990450   0.3864488  87.7025503  47.6057928   0.9927854
  87.8891069  48.9041059   0.2374181 108.9418793  95.5795002  69.6340752
 108.2922363  95.2869701  70.2733040 109.0263557  96.5198612  69.7916222
  56.7340422  22.7351069  83.3020496  56.4583588  22.2968149  84.1071129
  57.5701857  23.1436753  83.5260296 112.7862740  68.1851625   6.8711406
 113.7090206  68.0053473   6.6910350 112.3435879  67.3524332   6.7073935
  53.6002111  74.0989685  87.7971363  53.9947605  73.4879208  88.4193707
  53.4155226  74.8824072  88.3151531 110.0074863  56.4464760  83.1862450
 109.9784184  55.6440258  82.6652241 110.9172249  56.7380667  83.1264114
  51.4808369  82.2850895  62.8077078  50.7531738  82.5498009  62.2449780
  52.1425867  82.9646206  62.6790810 105.7327938   6.6601551  76.7418718
 105.2567291   6.3774478  75.9610605 105.0482178   6.9116247  77.3618317
  90.7551956   2.0811853  52.0661402  90.0551414   2.2391605  51.4327431
  90.3004646   1.8045016  52.8616858  90.3332520  32.5606394   2.7588683
  90.2765274  32.4828053   1.8065256  90.4430580  31.6609311   3.0665958
  45.7880783 103.5143566  81.1355686  45.6933737 103.2469177  82.0497608
  46.7231417 103.6917877  81.0335636  51.6548586   7.5020540  67.6798296
  51.8507719   8.4389269  67.6907158  51.2200022   7.3580480  66.8393564
  59.4266224  67.7635622   6.7056704  60.2118826  67.7588940   6.1583304
  59.7534704  67.9170704   7.5921452 113.4608746  28.7997031  26.0281777
 114.2832756  28.6964583  25.5494046 112.8526306  29.1621757  25.3840613
   7.1510428  91.8271446  72.2464466   6.7044634  91.1541939  72.7601862
   8.0223703  91.8884659  72.6379299  17.6756644  87.5141048  86.9774532
  18.4769225  87.3073578  87.4585724  17.1590352  86.7091942  87.0154572
   0.8441176  50.3892899   1.9898890  -0.0987479  50.3884888   2.1549208
   1.0459147  51.2957954   1.7580251  20.2066660  92.5214195  52.2286224
  19.3840349  93.0005836  52.1290588  20.1127386  92.0541954  53.0587482
  41.2091446  95.0210571  67.0688772  41.2318945  94.8738098  66.1233425
  41.7187023  95.8208370  67.1990490   1.7293216  70.4312944   8.3498377
   2.2715218  70.5131149   7.5652641   2.1374613  69.7248507   8.8504320
 111.0514069  82.8377438  12.1025836 110.3013515  82.2430611  12.0993412
 110.7602310  83.5876942  12.6212513  39.3025255  84.2341423  67.0128298
  39.0484786  84.3767738  66.1010456  40.2321815  84.0102005  66.9702148
 104.0814877  29.0013742  75.5174589 104.4906425  29.1559219  74.6660233
 103.6941147  29.8442411  75.7535648  83.3911991  92.5415325  13.3603120
  83.5209179  93.0471802  12.5579870  83.1094265  91.6786098  13.0566645
  56.5844297   1.7968510  91.4083862  56.1345339   2.4336571  91.9636345
  56.9920921   2.3239879  90.7212353  88.5749722  42.0673418  90.1874542
  89.0340424  42.8897285  90.3582573  88.9778996  41.4391565  90.7868385
  14.2931366  53.8605261  26.6436434  14.4180453  52.9911089  26.2632012
  13.7111878  54.3090677  26.0301447  50.4464054  11.8106270  80.3899384
  49.9981403  12.5189853  79.9278545  50.4610300  12.0928168  81.3044834
 100.9693241  47.8306770  17.1769869 100.2668381  47.7808332  16.5287089
 101.7745590  47.8028154  16.6602135  27.8336930 107.1456528  81.6758633
  28.2785058 107.3533344  80.8541298  26.9166708 107.3676682  81.5145683
  59.7632265  34.4614458  50.5637693  59.5701933  35.3953147  50.6465816
  59.7871113  34.1409349  51.4653969  41.5177965  17.3628271  76.7771959
  42.2218132  17.8275406  76.3248348  40.7720375  17.9616463  76.7385387
  39.6594810  97.9916859  66.4193296  39.4966364  97.4871540  67.2163010
  40.3440237  98.6138535  66.6654062  40.0057507  36.0381603  80.2205944
  40.2023220  36.7957306  79.6695232  39.5972586  35.4090118  79.6260071
  89.9185467  48.0494404  14.9076581  90.4147339  48.3040762  14.1297185
  90.2731133  47.1935368  15.1483607  16.0468554  76.2264061  48.6052179
  16.3460672  77.1295834  48.5004568  16.2392652  76.0147762  49.5186853
  63.4616423  37.7928066  71.9773006  63.6598969  36.8902373  71.7277098
  62.6571083  37.7278113  72.4918222 108.4051418  91.3770199   0.4864375
 107.6375580  91.4774895  -0.0765422 108.0446625  91.2799454   1.3678345
 107.2531700  30.8647990  78.9258671 106.5360641  30.2335906  78.8662148
 107.3471928  31.0325718  79.8635483  83.5381794  28.3171725  68.4035444
  83.5838509  28.2832527  69.3590498  82.7056599  28.7519407  68.2188368
  37.1097088   9.0564692  86.5498161  37.1332145   8.5785764  85.7207775
  36.5782428   9.8308021  86.3649273  92.0752239  39.0152431  67.2366285
  91.5689278  38.9586067  68.0469942  91.4881134  39.4486427  66.6171980
  43.6086082   6.5245003  91.5126419  42.7907801   6.8793613  91.8611526
  44.2717457   7.1721190  91.7515373  76.2355566  43.2895947  79.0001917
  76.1185408  43.4138298  78.0583286  76.4780474  44.1557121  79.3277216
   1.8956053  80.6871986  33.9308858   1.0396707  80.3166676  33.7156749
   2.3227564  80.0125980  34.4587851  70.3974628  17.0327234  80.4515839
  71.2962532  16.7142069  80.5349922  69.9725866  16.4014959  79.8708391
  69.3410826  26.9627261  59.4168568  69.6412516  27.4287510  60.1972103
  70.0489569  27.0767117  58.7827015 112.4903202  54.8575258   5.6652391
 112.9243755  54.2604780   5.0558454 112.1473694  54.2886972   6.3544780
  17.3456657  59.0816259  60.3076458  17.8271532  59.8208380  60.6790781
  17.0790315  59.3817711  59.4387102  50.8119297  11.3585365  49.6981764
  50.7466793  11.3785827  48.7434149  51.6975117  11.6705096  49.8843288
  43.0996418  25.7609940  75.3699636  43.1798363  26.2308240  76.2000608
  43.6694908  26.2395287  74.7678804  92.4483681  26.5371037  73.6785698
  91.5868092  26.6202354  74.0872669  93.0255795  26.2611580  74.3905449
  30.2575350  46.0185528  23.3506680  29.9890614  46.3604689  24.2034554
  29.9599981  45.1087713  23.3529258  82.7465630   8.3459884  56.9321728
  81.8693733   8.7193942  57.0179033  83.0413437   8.6236250  56.0648489
  29.5860386 100.9629440  76.4584446  29.5879269 101.9125366  76.5788651
  28.7885737 100.7863903  75.9593391  37.0426297 100.4458809  83.4293842
  36.5778995 100.8968925  82.7245140  37.1055818  99.5381355  83.1323051
  62.8392744  38.7074804  92.0121479  62.9684496  38.3459187  91.1353207
  61.9383001  39.0306759  92.0076084  80.2278423  34.2022228  67.2122860
  79.8650026  33.3223200  67.1105289  81.0423851  34.0707731  67.6975346
   5.1037508  49.7921324   1.8105099   6.0057831  49.7580338   2.1289559
   4.6669292  50.4122829   2.3943217  26.0534048  33.7949991  80.9496880
  26.6657186  34.1653037  80.3139400  25.7251596  32.9994011  80.5307484
  14.0002644  34.3996429  88.8810730  14.6002913  34.2021036  88.1619167
  14.3506074  35.1998806  89.2723656  56.6268826  18.5229099  66.7354536
  57.0168972  17.7178442  67.0760202  55.7846880  18.2467532  66.3739586
 101.9236565  94.7457409  14.3010306 102.4962234  94.1111469  13.8701308
 101.7909718  95.4316235  13.6466622  17.8355789  97.1817589   6.8873411
  16.9546461  97.3467064   6.5512174  18.3905113  97.8078461   6.4222664
  40.5520105  44.7953796   6.6075510  39.9271011  44.0846872   6.4638752
  40.2742195  45.1956606   7.4314666  60.6566286   7.3967654  51.9463825
  61.2014771   6.7452717  51.5048790  59.7589302   7.1441031  51.7306566
  15.4272735 106.0518074   0.1128811  14.8812318 105.6037998   0.7589156
  16.3250375 105.8697319   0.3905525   3.1391513  48.7364817  24.8066688
   3.8327724  48.7033749  25.4654741   3.5243344  48.3259487  24.0325046
  96.3989830  43.0761003  86.2374783  96.2976933  43.4277010  85.3529739
  95.5244255  42.7672148  86.4740467  73.7745047   2.7170449  68.0016947
  73.4404945   3.3106613  67.3291683  73.2005787   1.9525483  67.9528332
  77.6785612  42.1979904  25.4508471  78.4241533  42.2917080  26.0437560
  78.0731487  42.0707846  24.5880866  87.9249573  10.7596457  91.1670399
  88.4207344  11.5759170  91.1027527  87.1911049  10.9699821  91.7444992
  81.4081669  24.9385619  55.5710983  81.1303806  25.7296658  56.0328531
  80.5949211  24.5543599  55.2435923 107.9366112  44.7684336  82.8332138
 107.8640842  44.3495226  83.6908245 107.0893192  44.6101904  82.4169350
   2.8694996  77.5164795  40.1649332   3.7544018  77.8781223  40.2138662
   2.4264272  77.8618240  40.9399557  73.2103157  29.7456527  82.7717495
  73.1085587  29.8518777  83.7175846  72.9449081  30.5894804  82.4060345
  41.1767817  98.6328602  60.4750776  40.7660103  98.4526634  61.3206720
  41.9623995  98.0860519  60.4690647  87.8474236  21.9885516  87.4940681
  87.8832817  22.6082516  86.7654324  88.7373829  21.6419363  87.5577164
  12.9514980  94.2375183  59.7614861  12.2294152  94.4089985  60.3659916
  13.4514165  93.5357666  60.1784515 102.0864964  80.2859592  13.8974822
 102.9831505  80.4539967  13.6076307 102.0038223  80.7749653  14.7161841
  88.7254620 105.5416584   7.8363162  88.6463737 105.0758553   8.6687869
  88.4880924 106.4453888   8.0440390   3.9355037  19.8727381  86.1573505
   4.0670750  20.8184862  86.2242889   3.1694895  19.7769451  85.5914211
  80.2144718  18.2172263  89.9180126  79.6724844  18.3343363  89.1377831
  80.1430416  19.0489900  90.3863144  57.1536446  27.6750970  69.3958139
  57.6603270  26.9630027  69.0053988  56.2459803  27.3740149  69.3542242
  78.3846045  71.5535116   4.4695470  79.0588760  71.4215231   3.8030908
  77.6853180  72.0216131   4.0133521  37.5169802  84.2337704  47.2447348
  37.9392028  83.4473038  46.8991470  36.7378902  83.9087296  47.6959610
  89.1040230   6.9625729  68.9079475  88.1949425   7.1912634  68.7143040
  89.6173763   7.4650282  68.2752991  99.6775913  57.1341610  22.3913956
 100.1105404  57.3747110  23.2104921  99.3300819  57.9593086  22.0528603
  26.3526964  83.8785267  87.4083424  26.6959214  83.2069016  87.9977036
  26.1994553  83.4177303  86.5834618  70.2917528  32.5295949  60.7071209
  70.5645180  32.4670410  61.6224957  69.9112511  33.4045124  60.6298399
  76.2097836 101.7136383  80.6370831  76.1389256 100.7853603  80.4145432
  75.4483986 101.8859291  81.1910152  62.2065735   9.3879902  72.2584963
  62.6365614   8.5727572  72.0001650  61.7918921   9.1848034  73.0969381
  87.2755337  17.7333462  49.0619469  87.0827770  16.8641365  48.7104511
  86.8739891  18.3383548  48.4382868  86.4185715  27.5919271  67.2335625
  86.3746357  26.7568231  66.7678356  86.9468498  28.1544781  66.6672611
  48.5241365   9.3047494  92.4777222  48.8024616   9.4436026  93.3829689
  48.8925171  10.0462890  91.9974613  48.7374020  38.9178133  65.1161814
  49.2376995  38.1181622  64.9534082  49.3300867  39.4719529  65.6240082
 110.8308792  42.1544838   9.2245287 110.3880787  42.0217943   8.3863437
 110.8613968  43.1052065   9.3314230  91.3329887  17.6562095  70.2565622
  92.1623325  18.1339312  70.2709723  90.6749916  18.3243978  70.0647354
   5.5494350 106.4890289  80.1221657   6.2036866 107.1821022  80.2107143
   6.0267460 105.6826878  80.3176498  32.0607376 103.8810921  86.6453648
  31.9759583 103.7275505  85.7043743  32.9554820 103.6112785  86.8524170
 108.9898205  61.3581944   0.7766977 108.5900497  62.2257710   0.8378016
 108.2749844  60.7839012   0.5020477  17.0413566  62.5036955   8.5229594
  16.1907864  62.3262835   8.9245629  17.5016105  61.6650772   8.5564196
  95.3214836  35.9397650  88.8220596  95.0479031  35.3822064  89.5504284
  94.5934486  35.8981681  88.2020092  19.5500195   0.6308067  90.8611965
  20.0138378   0.4577306  90.0419617  18.9934635  -0.1375228  90.9882641
  62.4806309  30.5965805  63.1494951  62.5980854  31.3093424  63.7775135
  62.5695562  29.7996783  63.6722469 105.6932545  37.7588487  17.1614516
 104.9167919  37.5704432  17.6885450 105.8033943  38.7073755  17.2277832
   8.3365828  52.1578693  25.1108336   7.9649603  52.4717903  24.2864656
   9.2757046  52.3238516  25.0287914  40.6404161  89.1491413  90.4520226
  39.7880650  89.4603634  90.1472664  40.8683014  88.4436893  89.8465157
  54.4977474   6.5789574  67.8562641  53.5691833   6.7938274  67.7677679
  54.9351883   7.4280691  67.9186010  78.9219809   7.6626760  64.3364429
  79.2593145   7.2331941  63.5503197  79.5304871   7.4061167  65.0293589
  42.4940538  34.0217447   9.6704930  43.1990147  33.7225413  10.2447259
  42.0545483  33.2182574   9.3921489  73.7375450  11.7125452  58.8720989
  74.0655231  12.4594724  58.3713388  73.2669163  11.1815321  58.2296324
  77.1534300  49.9487019  14.7172225  77.5736141  50.5742168  14.1269600
  76.2280178  49.9742413  14.4739282  91.3666725  25.2513218  56.8685007
  91.2707424  24.3774295  56.4898968  90.8108521  25.8100438  56.3252497
   1.6366638  52.8931284   1.2778233   1.4389263  52.7916336   0.3467862
   2.4897893  53.3268261   1.2955962  91.9461250  92.0538712  10.9847677
  92.8501225  91.9914246  10.6763601  92.0239258  92.1833992  11.9299662
   2.5096786  72.6315165  12.7266788   1.6031727  72.3912525  12.5349736
   2.5260749  73.5854578  12.6494694  67.7608299  10.0492394  80.1287651
  67.2453928   9.5524919  80.7642174  68.6706591   9.8576391  80.3561974
  92.1524048  20.3544664   2.8089410  91.2334061  20.4737377   3.0486307
  92.2736454  20.9115696   2.0400651  31.9970679  10.2172160  88.8115692
  31.5127778   9.3948787  88.7376976  32.3975253  10.3375161  87.9505253
  50.9921885  13.1780672  82.8498650  50.2279568  13.7429023  82.7352333
  51.6752386  13.5887790  82.3197842  39.1478395  30.5404639  28.2667351
  39.8936129  30.5281568  27.6668143  38.8447309  29.6328402  28.2907081
  21.2160993 101.2434387  91.3245106  21.4322138 101.3111687  90.3944874
  21.2085199 100.3026295  91.5007401  46.6011858  98.6167145  69.7606421
  45.7605028  98.7150097  69.3136263  46.3738251  98.2783413  70.6266928
   3.3559588  39.5979500  36.3411641   3.3387214  39.1614580  37.1928716
   3.3126107  38.8839054  35.7051659  47.7912378  22.1951175  81.6425991
  47.8353262  21.4640212  82.2588634  46.8814135  22.4895072  81.6849232
  44.6639681   7.0096552  71.8261623  44.1936016   6.2295628  71.5321541
  44.7490788   7.5486320  71.0397196  72.9833984  32.0838690  71.6177988
  73.5333920  31.6752219  70.9494066  72.6682329  32.8898191  71.2087154
 104.4592762   8.4499657  89.3756962 104.6371078   7.9335356  88.5896206
 105.0190163   8.0624580  90.0485611 112.9875851  20.5458689  83.7324429
 112.2533703  20.6848669  84.3306541 112.9701519  19.6071815  83.5459137
  66.7506838   3.4765223  59.8808670  66.5897894   4.4185239  59.8263073
  67.2681904   3.3677492  60.6787348  99.2183971  13.0291259  73.4262514
  99.7091961  12.2467291  73.1748533  98.5253525  12.7029490  74.0003014
 101.9839001  28.1461453  73.3309555 102.4602413  28.0178022  72.5106716
 102.5428486  27.7467585  73.9975166 109.1404629  78.3532906  -0.0184431
 108.4069538  77.7909660  -0.2674052 108.8080215  78.8695478   0.7158514
  77.0863342  33.8297486  54.2094517  77.5427914  34.6695304  54.2609072
  77.0464373  33.6358142  53.2729530 106.0683250  69.4023418   7.8149593
 105.4679966  68.7226057   8.1212205 105.9092617  69.4554901   6.8725646
  42.1420765  99.3500710  85.0229454  42.1155882  98.7047863  84.3164444
  42.7623177  98.9874268  85.6554127  74.2199612  17.4914122  60.7302856
  74.2855644  17.2385359  59.8094273  73.8556004  16.7203879  61.1650229
  10.6531858  42.5192404  20.2824688   9.9883711  43.0554008  20.7146525
  11.4815772  42.9516935  20.4897833  89.3751144  51.2740135  72.6095200
  89.2289352  51.4185762  71.6746616  90.2924633  51.5097809  72.7477741
 100.2190113  14.8880720  84.9640560 100.0925732  14.0291035  84.5610428
 101.1558437  15.0608623  84.8707199   0.6979956 105.6331825  74.6359253
   1.4104778 105.0094795  74.4959259   0.3314468 105.3911400  75.4863882
  53.6476946  19.9288416  64.4125843  54.4560337  20.3974485  64.6205091
  53.8683462  19.0053093  64.5335484  88.6592960  83.5302544  45.7327223
  87.7034569  83.4856319  45.7575274  88.9129639  83.7345695  46.6328001
  84.8345757  49.2607403  82.3510456  84.4731903  48.9721966  83.1891251
  85.3819561  50.0140047  82.5728703  96.5763474 105.8928680  84.0392208
  95.8278084 105.8461094  84.6339703  96.7733860 106.8273830  83.9752197
  96.1863327  90.0045300  18.1570160  95.6707954  89.9646950  18.9625406
  97.0922947  89.8977470  18.4469390 109.0536022  62.8032207  11.2279773
 108.2964993  62.2298670  11.3475144 108.9239120  63.5068941  11.8637872
  52.4754047   5.2111673  79.1977549  53.0947638   4.7517052  79.7647858
  52.0480347   5.8449888  79.7738266  81.4204788   1.6948368  73.5705042
  81.7084312   0.8049823  73.3668518  80.9633732   1.6129985  74.4075155
  78.1129360  18.1350386  77.9690981  78.8762712  17.5718582  77.8411102
  77.7393246  18.2347250  77.0934772 106.3136864   6.1173755  63.2653236
 106.7289352   5.2857667  63.4938574 105.4272461   6.0478407  63.6197615
  78.4209013  10.5773091  64.1977167  78.7387085   9.6747762  64.2235422
  78.4771872  10.8771074  65.1050091  63.9735508  31.7932081  56.8359470
  64.0279007  31.4830565  57.7398729  64.7369051  31.4091492  56.4046478
  94.6287155  94.1985130  18.2895660  94.6387482  95.1554394  18.3099580
  95.3807735  93.9626122  17.7464402  85.8764744  20.0327444  67.1591330
  86.7917538  19.7696471  67.2554493  85.7976913  20.2942038  66.2417078
  68.1884766  14.2785883  63.4245396  68.2609463  13.8830757  62.5558901
  69.0743494  14.2311060  63.7839937   8.8285941  83.3712292  23.1432652
   9.1166288  82.7693462  23.8295674   8.8914186  84.2384911  23.5434294
  20.5498314  83.8501835  62.9030418  21.2022138  84.4086552  63.3258152
  20.4967260  84.1805935  62.0062494  29.0601325  17.8390431  65.2855539
  29.7327471  17.3718154  65.7810545  29.3850040  18.7376630  65.2292156
  49.6513891  28.8028717  72.3526907  50.4835367  29.2377734  72.5387669
  49.8738909  27.8735161  72.2976971  90.8020687  73.9749861  20.2396536
  90.3789997  74.7975731  20.4858255  90.4888535  73.8008165  19.3520737
  77.2454691  68.6735868   0.5002942  77.0475101  68.0218410  -0.1722137
  76.5936804  68.5180235   1.1838184 103.9361763   5.1896501  74.9877596
 103.3469582   4.5418471  75.3742981 104.7557831   4.7151411  74.8487616
  16.5279353  82.4224091   1.5120934  16.7714024  81.7924118   2.1903677
  15.7242668  82.8271484   1.8384948  98.5045052   1.5344419  77.0823812
  98.0487156   2.1901439  77.6101542  99.4192123   1.5998106  77.3567200
  37.3520184  91.3776016  59.4087315  38.1553459  91.2584877  59.9153996
  36.8017697  91.9344044  59.9595690  73.6609745  17.6814651  82.1461487
  72.7828217  17.8551197  82.4851608  73.9514923  18.5219109  81.7919159
  42.7343750  95.0286961  63.0398417  43.5635471  94.6016502  62.8245831
  42.3874664  94.5219040  63.7740326  88.1029701  58.3549404   8.1490785
  87.2632599  58.0776787   7.7826762  88.5408974  58.8078547   7.4284387
  35.5009532   7.2899681  20.5176663  36.1974955   6.6594768  20.7008123
  35.4313612   7.2994107  19.5630479  14.0086520  15.5320001  70.8087397
  13.4318948  14.8160207  70.5423641  13.4238672  16.2813854  70.9213400
  84.5021820  33.3053207  79.4079781  84.5804691  33.5343051  78.4818745
  84.9855614  32.4835491  79.4932032  64.9860954  32.5664258  62.6182508
  65.3940392  32.2783494  61.8016577  64.4908714  33.3487988  62.3755980
  32.5690508  16.5511751  70.4831123  33.4966493  16.6391754  70.2639151
  32.3277736  15.6832361  70.1595402  34.5694876 100.2408504  74.4998455
  34.9711990  99.8636055  75.2824974  33.7497258  99.7579384  74.3949080
  63.4276152  17.8594649  91.1971569  63.4065151  17.3629141  92.0152187
  64.3254185  17.7608395  90.8802032  66.0470104  15.3634822  56.4329386
  65.7128286  14.4666028  56.4200974  65.8663845  15.6989729  55.5548429
 104.2951298  60.7901907   4.5151782 104.7425938  61.6284561   4.3997729
 103.3892345  60.9651709   4.2602974  80.2252579  19.7716761  74.6530533
  80.5838966  19.2463076  75.3683186  79.5446730  20.3040862  75.0648451
  35.4911947 102.5199223  72.0017147  36.0698366 101.7994118  72.2512436
  34.7856331 102.4953365  72.6480961 103.0014801   1.6595602  92.5002384
 103.9153004   1.9331326  92.4207306 102.7047825   2.0513223  93.3216476
  95.2620506  67.8017759   4.9344507  94.6981812  68.2348156   5.5753493
  95.0152779  66.8782425   4.9836284 110.2252579   7.8531069  76.6981173
 110.1160431   8.7989110  76.7969036 110.2309895   7.5177324  77.5946236
  99.2515755  19.6932089  90.1448441  98.8679409  19.3786383  89.3262482
  98.5187626  19.7141564  90.7602882  83.9177132  40.9327364  86.4707851
  84.6909618  41.2890339  86.0333157  83.8935661  41.3802004  87.3166084
  65.1128721  35.3823948  83.6489582  65.7489204  36.0552907  83.4062862
  64.6066856  35.2322149  82.8505516  26.1682153  96.2184715  79.2536116
  25.5498362  95.6317806  78.8181400  26.6916037  95.6433105  79.8117256
 105.0249577  36.3873529  59.1212225 104.7599506  37.2836781  59.3276310
 105.1261330  36.3806772  58.1694078  47.7457905  85.6292152  73.8072872
  46.8879128  85.9660625  74.0657663  48.1049538  86.3047314  73.2320356
   5.5322415  96.5388393  32.3296309   5.8184934  95.7842541  31.8149495
   4.5974633  96.6178036  32.1394038  43.8094330 103.5857296  92.0089912
  43.6399508 103.5774231  92.9510307  43.2392883 104.2754078  91.6691208
  39.1963053  99.0146923  43.1937218  39.0256763  99.7797012  43.7431526
  39.5762396  98.3706093  43.7912512  87.8853989  18.5386169  53.8100338
  88.3692265  18.3931708  54.6230507  87.5713730  17.6697969  53.5594940
  47.9840183   4.5296764  83.2589149  48.0340528   3.5881487  83.4240055
  48.2555103   4.6275777  82.3462582  64.0181589 102.9430676  48.3792543
  64.9166346 102.7572060  48.6520672  63.4747934 102.5637531  49.0699863
  39.3277645 105.8387852   8.7267613  39.0227985 105.8884907   7.8208053
  38.7522960 106.4347458   9.2062390  23.3407974  20.6995392  71.3740587
  23.4859443  19.7541428  71.4113522  24.2118406  21.0701728  71.2321329
  81.2663174  44.9397850   6.0269284  80.5021858  45.1987457   6.5419620
  81.3770294  44.0077305   6.2146854  10.2538884 107.1745110  59.3865395
  11.2014115 107.2436619  59.5033693  10.0027680 106.4141273  59.9109364
  39.1494036   6.5186113  63.9082909  38.9499068   5.7139957  64.3868589
  38.2959890   6.9243211  63.7555981  68.0346298  27.3432326  73.8491154
  67.1311331  27.0507598  73.7291670  68.5061646  26.9773769  73.1007624
 101.7203999  20.7844567   5.4884022 102.0983791  20.0049520   5.0813001
 102.3593235  21.0411167   6.1533344  49.9204779  37.5464797  80.1704693
  49.8935795  36.9786501  79.4003487  50.1848650  38.4007454  79.8290539
 108.6903477  98.4549713  68.0841398 108.1305695  98.1243229  68.7866735
 109.5811462  98.2634926  68.3774757  83.1072807  95.6932259   8.2030290
  82.1565247  95.5890656   8.2410312  83.2380009  96.6002750   7.9266018
  77.6532221  10.1759410  73.4339571  78.1799459  10.9693098  73.5307169
  77.7382469   9.7278839  74.2755318  44.3819904  35.3038073  63.5079432
  44.2617893  34.3693709  63.3387947  43.7628126  35.7353759  62.9192209
  23.3299088  99.6302414  76.4246655  22.4687123  99.4961643  76.8203926
  23.7068081  98.7521935  76.3680649  93.3072376  80.8510780  16.5136623
  93.9672089  81.5402126  16.4377582  92.6527882  81.2110901  17.1122587
  11.5696895  96.1180973  83.7260437  12.1493542  96.8010616  84.0633488
  10.7027817  96.5237713  83.7147522  92.8863716  79.4968987  19.2209125
  93.3418846  80.0403976  18.5779929  93.2013512  78.6092567  19.0503001
  45.8821583 106.2306118  81.6786957  45.6088305 105.3347015  81.4815235
  46.7761421 106.1410999  82.0088673  89.3388176  47.2752476   5.3800011
  88.4918785  47.6385927   5.1213247  89.6782494  47.8950930   6.0256088
  76.4294863  48.3906603  83.2383060  76.4204073  47.4405670  83.1222630
  76.6494274  48.5171318  84.1612720  17.8504944  11.5255201  75.9959364
  17.6904047  11.4012909  76.9314432  17.0583320  11.1959672  75.5715466
  70.9646511  41.8406677  83.7068748  70.7791281  42.5391245  83.0792046
  70.2673769  41.9129419  84.3586540  89.7179508  23.3932114  75.1927662
  89.7339916  24.2116880  75.6888199  90.1615524  22.7614141  75.7587051
  69.3165684  26.2567616  86.2423325  68.9646482  26.0045075  87.0960045
  68.5903549  26.7023015  85.8060551 112.6399136  26.0908198  92.6508427
 111.6884518  26.1413050  92.5591564 112.9575729  25.9245706  91.7633247
  15.7665324  44.2055368  61.2009859  15.9135413  44.7666550  60.4395628
  14.8251176  44.0326118  61.1928892  64.3815947  19.2458463  34.9193883
  65.1208830  19.8054135  35.1572394  64.7031450  18.7237418  34.1843748
   3.4134382  84.1666603   5.3659236   4.0058738  84.9177456   5.3994548
   2.5406897  84.5450687   5.4724699  91.0399437  15.2280676  54.3705559
  90.1602745  15.3087831  54.7391891  90.9461021  14.5882940  53.6647844
 113.2757092  75.8723259   2.3468551 112.5130653  75.8098555   2.9219222
 112.9926395  75.4644394   1.5284833 102.0107079  32.9595256  68.6477757
 101.5812969  33.2081270  69.4663286 101.5834618  33.4965396  67.9804611
  99.4841385  44.4702196   6.1550915  98.5884285  44.3851328   5.8284694
 100.0264072  44.0736866   5.4732215  30.8976054  76.1618567  25.7368708
  31.5653920  75.5694342  26.0823059  30.1197982  75.6131840  25.6358433
 100.4415607  21.0596442  86.9704723 100.5208874  20.9412217  86.0239410
 100.0848389  20.2295756  87.2866440  62.8108978  27.9220414  80.9302139
  63.5914421  28.0735254  80.3972626  62.4790907  27.0746136  80.6335545
   3.4828439  90.5138016  10.8667505   3.9397603  90.6512642  11.6965485
   2.6700228  91.0114574  10.9555960  80.6624603  13.3568871  84.0646648
  80.4821777  13.2645369  83.1291389  80.0766373  14.0565920  84.3535423
 106.3584709  30.7443643  63.2694483 106.7404747  31.3755465  62.6596022
 107.0406532  30.6023574  63.9257193 101.4278221  28.5323310  69.7528028
 101.5154743  29.1521859  69.0286970 100.5415630  28.1821752  69.6623898
  13.1899047  42.2289705  57.3934460  12.7336335  41.5204287  57.8473377
  13.9191222  41.7976141  56.9480181  65.2056026  43.7118435  89.9332714
  64.8037767  42.8481913  89.8390579  64.4676495  44.3055201  90.0718784
  99.4789886 107.0861912   1.9883195  99.2368793 107.3487282   1.1002377
  98.7494755 107.3820877   2.5328258  98.4000206  23.7020707  86.7405891
  99.1639328  23.7700939  86.1678410  98.3813000  22.7828002  87.0067215
  97.6705551  22.5256443  90.0820923  97.9758167  23.3391809  90.4835892
  98.4166527  22.2178578  89.5674706 106.1291599  23.9439178  56.7646265
 106.5262985  24.6783829  56.2965679 105.1884842  24.1172075  56.7282104
  10.7625067  94.1998768   7.8820562  10.2659631  95.0055790   8.0252665
  11.0781634  94.2700005   6.9811261  84.2847252  11.8936563  83.3602619
  83.4889984  11.3728261  83.4688091  84.8477364  11.3573217  82.8020573
  30.4460239  95.6264496  79.8689556  31.2797284  95.5774975  80.3366852
  30.6925464  95.6959915  78.9466619  94.4627476  31.1340261  62.7300549
  93.5337448  30.9047341  62.7054501  94.5053482  32.0039034  62.3329020
  78.2275772  29.1473365  90.4102707  77.9260921  28.2632041  90.2013397
  77.6618195  29.4297504  91.1288738  71.7230988   8.6442560  90.6089878
  71.9052839   9.5626789  90.4101467  72.4924803   8.3471978  91.0948372
  67.0459461  22.4173093  84.7152233  67.9533863  22.3680639  84.4146252
  66.5787601  22.8449440  83.9975262 101.4036751   4.9576578  91.9232368
 101.2049389   4.2740589  92.5630951 101.8568993   4.4990623  91.2157631
  88.5983658  41.8780565  64.5300627  88.1397247  42.7128935  64.6245766
  88.5710621  41.6947556  63.5909748 108.1626320  18.8953400  51.7957687
 107.5471592  19.1721296  51.1169338 107.7461529  18.1346822  52.2009516
  77.4707890  53.3483887  89.1323853  77.7080917  54.2597103  88.9608860
  78.0502176  53.0801439  89.8455048 105.8281136  33.8499451  73.7612820
 105.6796932  33.1850672  73.0888700 105.3107262  34.6018744  73.4729385
   0.9680763  88.2192326  16.8821025   1.7277855  87.8186035  17.3046744
   0.2871964  88.2098961  17.5548196  75.2445364  37.2250986  80.3619099
  75.1986408  36.2692618  80.3395367  74.6922350  37.5085258  79.6333027
  89.2703915  44.2499018  76.0065317  90.1056004  44.4960451  76.4041090
  89.2928410  44.6479368  75.1363039 106.5900898  57.1283340   8.4078360
 106.2787151  57.3892260   9.2745620 106.3268471  57.8466415   7.8325361
  86.0144138  73.0719757  24.1920209  86.7616653  72.5926113  24.5498705
  85.7750893  73.6916447  24.8812008   6.3706130  18.3096981  55.5142212
   6.6159678  17.5822914  56.0859871   5.7021034  18.7862432  56.0063934
  27.1254444 103.2972431  19.7155881  26.2704492 103.3563137  20.1418781
  27.2901154 102.3574924  19.6382833 108.0803585  50.1490641  12.8523755
 108.3049870  51.0711145  12.9772425 107.5368214  50.1395273  12.0645273
  90.0899506  10.9395671  72.7766466  89.7158241  10.9734392  73.6570501
  89.7755909  10.1111448  72.4145269  96.8783855  72.9844666  13.6960959
  96.1532688  73.3284092  14.2177725  97.4700832  72.5918198  14.3379354
 108.7623215  67.1807146   5.8697075 108.7934875  67.8278780   6.5742928
 109.6515179  66.8288183   5.8282024  67.5347519  28.0299187  89.3934822
  67.9495764  27.1676445  89.3682766  68.1154442  28.5902119  88.8786030
  93.5866833  39.2348671  87.4336910  93.0962276  38.8405299  88.1549263
  94.2174911  39.8139811  87.8614140  33.1248784  74.7187519   5.4952735
  32.3768902  75.1193762   5.9382719  33.2325053  75.2325249   4.6948475
  26.6997266  74.1079283   3.1889638  25.7580590  73.9373255   3.1692323
  27.0012259  73.8895845   2.3071152  74.0481663   2.4939658  89.6401405
  73.8977528   2.7731562  88.7370014  74.3639421   3.2807106  90.0846004
  70.9693384  28.7087917  85.7822704  70.2548599  28.0718565  85.7743931
  71.6404104  28.3091187  86.3355827  59.3508244  59.7446299  87.7379799
  59.6989489  60.4731560  87.2238731  58.4746885  59.5972300  87.3817635
  93.6741543  49.8624992  73.3755589  93.2371521  49.9181986  72.5257587
  94.2608738  50.6185913  73.3931828  82.4565697  52.6006317  80.8849716
  81.6855335  53.0051756  80.4873753  82.2187519  52.4847698  81.8048954
  49.9812508  91.2353325   7.6843065  50.9268999  91.0879993   7.6678967
  49.8706532  92.1202946   7.3366898 107.8670979  85.5602169   6.6029811
 107.7734947  84.6601295   6.2910175 107.1026134  86.0163403   6.2512046
  93.7664795  18.0131543  73.7542295  93.2799339  18.3662736  73.0093718
  94.6539021  17.8821409  73.4202385  84.4582939  34.9213839  83.7253857
  84.6873474  35.8227777  83.9517784  83.5215282  34.8582911  83.9117146
  63.4773874   4.0539241  81.0821629  63.1760454   3.1833202  80.8224010
  63.3160782   4.0918061  82.0249081  12.3260951  61.2655687  10.5312002
  11.4670634  61.1647987  10.1211488  12.4204695  60.4893875  11.0833454
  32.3980117  91.4170265  11.6948497  32.0782685  90.9494114  10.9232748
  32.6806974  90.7258797  12.2937119   7.5338936  37.0943904  78.6219597
   7.1486533  37.8274035  79.1020775   7.3479044  37.2859502  77.7027512
  18.6792600  43.5222960   1.3503547  18.7770200  42.6210880   1.0429463
  17.8738511  43.8309145   0.9352607  65.2483416 104.0629101  69.1630745
  64.8308802 104.0297127  68.3023453  64.5620298 103.7918091  69.7727537
  73.8281631   5.1853520  80.4792881  72.8988791   5.0330013  80.6509113
  73.9177275   5.0772744  79.5324421  91.9656563   8.1338263  69.9963617
  92.2640324   7.2609705  70.2519512  91.1417580   8.2531738  70.4687786
 113.2739258  32.6473284  72.2217798 112.3742008  32.3885441  72.4211836
 113.2122517  33.0991936  71.3802052 102.9939842  19.9241221  86.4500046
 103.0595493  19.3239665  87.1928024 102.1537399  20.3659439  86.5724945
 108.4206581  79.5985174   3.1274953 108.0156326  78.7684202   2.8762457
 107.7211857  80.0834274   3.5654837 109.7857380  50.6022120  31.8396378
 110.5710697  50.9806776  31.4443564 109.9202156  50.7017374  32.7821040
 106.1880398  38.1054068  81.2893963 106.6255188  37.3303056  81.6416264
 105.2767754  38.0132198  81.5674686  92.0602417  31.1412144  86.4075756
  92.3979950  32.0032358  86.1645222  92.8307056  30.6571865  86.7047882
 109.8559856  46.3702488  85.8133793 109.8231125  45.5532598  85.3157043
 109.9148846  46.0917807  86.7272758  55.3707933  31.3715100  51.3854647
  54.9730015  30.5131102  51.5308714  55.6622458  31.3491321  50.4739904
  39.2109156  37.0643663  34.6720505  38.8352680  37.8782058  34.3362093
  38.5177040  36.4146495  34.5556164  77.7087259   0.8019800  65.4740334
  77.4578524   1.7169511  65.6010056  78.6658478   0.8140524  65.4725266
  77.3556137  27.5455880  57.6032543  77.4750519  27.6629877  58.5456848
  76.7850399  26.7807674  57.5275707  83.9891911  16.7140710  78.2907343
  83.1702805  16.3515425  78.6286640  84.1812897  16.1885858  77.5140810
  80.6887913   8.0738270  87.5322151  80.5340862   8.6671871  88.2672119
  80.4102039   8.5690224  86.7618942  66.9453526   0.6657156  90.1862049
  67.2918987   1.1806662  90.9148788  67.4664116   0.9384877  89.4309998
  97.8718472  35.4569149  45.0654793  98.4027863  35.0629759  45.7576847
  97.0820904  34.9170637  45.0328064  64.9990797  49.9674320  88.8220978
  65.7521868  49.5723724  88.3827877  64.4324255  50.2608919  88.1086445
 106.5504932  84.4695950   3.4307280 105.8003902  84.0824413   2.9794064
 106.1631298  85.0723648   4.0654349  75.3011179  43.9445114  73.3362532
  75.4611969  43.4333754  72.5429392  74.4503880  44.3573093  73.1876135
  82.5024605  42.6032782  81.9959831  82.4995136  41.8064833  82.5263977
  81.9163132  42.4067020  81.2652111  92.8260425   5.8726219  92.2899966
  93.3393982   5.3017763  92.8616928  92.3650339   6.4597277  92.8891708
  36.2985396  62.3276138  74.2685699  36.7484426  62.7551556  74.9972820
  36.7586708  61.4955711  74.1580391  94.7519779  35.3845835  45.7488775
  94.6721840  36.3298059  45.8770275  93.9227390  35.1266122  45.3463316
   8.4743547  24.4367790  50.1752281   9.2676479  24.8893118  49.8886442
   8.7939340  23.6977172  50.6928110  18.9556730  99.2706394   5.4986340
  19.7662520  99.4977379   5.0429785  18.8479781  99.9601078   6.1538202
  11.1115980  33.8346505  83.1850624  10.9455740  34.1583991  82.2997093
  11.4928222  32.9663277  83.0550003  17.9314268  89.8046589   0.4805508
  18.0412686  90.0418186   1.4013779  17.1098423  89.3141270   0.4559179
  93.8845444  47.1134996  67.6955938  93.0275631  47.0285749  68.1134605
  94.2839813  46.2488079  67.7904081  28.2643414 106.0259247  74.4343996
  29.0049815 105.5893612  74.8552227  28.1891608 105.6002712  73.5803509
  99.3937969  33.4534574  57.3502779  99.8748970  34.2809343  57.3430490
  98.4723663  33.7119579  57.3307419  87.8650951  62.8571653  79.6016884
  88.6292171  62.7941799  79.0286398  87.1272945  62.6072359  79.0454340
 105.3349972  22.9117179  70.0223446 104.6228504  23.3349824  69.5428419
 105.9272099  23.6275458  70.2528000  79.0486431  23.6296630  74.2801857
  79.5504951  24.2815733  74.7694588  78.2962513  23.4372330  74.8397446
  81.7927551  68.1619596  15.7397842  82.3591614  67.5471973  15.2734303
  82.2564793  68.3417225  16.5576315  17.9638016  80.5151653   5.4317808
  17.6219976  81.4091969   5.4418099  17.9348910  80.2580166   4.5102215
  70.2425671 106.8217087  90.3257751  70.5321932 106.6206264  89.4358730
  70.8694124 107.4731827  90.6402111  84.1773891  28.1987929  65.4974174
  84.8358822  27.9648709  66.1515570  84.6369553  28.1319666  64.6604204
  86.3406372  64.4443274  24.1503620  86.9389725  64.2426825  23.4309387
  85.4683590  64.3810415  23.7613130   2.6837376  35.9150720  60.7675219
   2.9615515  36.3776684  59.9769163   2.9988706  36.4611387  61.4877510
  62.0630598  40.5308008   8.0440402  61.8617344  40.5776882   7.1094269
  62.7090216  41.2229824   8.1849164  62.6819324  21.4521646  83.6011219
  63.4402514  21.1564350  83.0974007  61.9530439  20.9305096  83.2652187
  12.5306559  97.8510857   7.5273389  13.0709577  98.5778999   7.2174132
  12.7694786  97.1168518   6.9615626  98.4965897  81.7071438  12.8147388
  97.6612473  81.3607407  12.5009966  99.1579914  81.2084961  12.3350084
  92.8286648  37.1652532  49.2997837  92.8284454  36.2087917  49.3374062
  92.8506851  37.4409866  50.2161455  44.6363401   2.9066867   3.2463506
  43.8814402   3.4713143   3.4123430  44.6889687   2.8515261   2.2921917
  67.0113754  70.8244944  89.7036934  66.1542559  71.1747456  89.4610023
  67.3736238  70.4883909  88.8839054  94.2190742  49.8639488  33.7218571
  93.9988518  50.0801802  34.6279359  93.5755634  50.3416014  33.1984353
  77.4035406  60.4877615  91.4298248  77.7336693  60.1731873  92.2714233
  77.9785109  61.2193680  91.2053394  71.7008686  36.3547993  75.3982973
  72.1779490  36.2740970  74.5723963  71.9060612  37.2368860  75.7082224
  98.4623814  63.5393381   8.1280565  98.4158421  63.9382029   7.2591662
  97.8151989  64.0177727   8.6462045 103.0276489 100.0367737  13.7813342
 102.7356815  99.1390610  13.9397216 103.4900570 100.2831078  14.5824158
  61.0727596  26.4408827  55.2567577  60.8248806  26.6009545  54.3461704
  61.4279985  27.2768354  55.5587816 111.0920143  32.6911950  66.6931152
 110.1714897  32.8162313  66.9238710 111.4367104  33.5786343  66.5938044
  53.2378674  19.0481675  79.7512197  53.2235003  19.7301650  79.0797234
  53.2735348  19.5276761  80.5788898  76.1856604  16.4153528  72.0540619
  75.3838873  16.8285680  72.3744535  76.2747717  16.7307496  71.1547232
  72.8873730  13.0351305  71.2084341  73.2426643  13.8107789  71.6424513
  72.3895454  12.5855172  71.8912554  60.8918524  16.2569189  60.8044291
  60.4196548  16.7768931  60.1541281  61.2473631  15.5191457  60.3089142
  82.6157856  18.7957454  82.0084190  81.9556999  19.3107843  82.4723721
  83.3889294  18.8343275  82.5714302  82.1109676  65.8166885  54.1255283
  82.1933556  65.4485655  53.2457972  81.1947155  65.6711912  54.3612099
 100.1717758   5.9427291  81.0468388 100.3886795   5.3745979  81.7860413
  99.2949486   5.6656843  80.7810497  91.3605404  41.6888332  77.3896027
  90.4295254  41.4753389  77.3275042  91.3783455  42.6154089  77.6291275
 108.1814957  38.8475490  63.2308865 108.9231777  38.9697623  63.8235140
 107.5778580  39.5563245  63.4533310   1.2450047  76.7789793  26.9760013
   0.7469624  76.8918943  27.7855897   1.7670949  77.5778913  26.9025731
  28.0501676  40.1729727  50.3403187  28.8031697  40.3680182  49.7824860
  27.4834442  40.9395647  50.2543402  32.3653626  10.3006673  12.8730905
  33.0553675  10.4657209  13.5156488  32.8238082   9.9290639  12.1194530
 101.7210960  38.1911373  50.3735304 102.0235729  38.0970120  51.2767935
 100.8279896  37.8468943  50.3829241   0.7044565  42.8802204  84.2384243
   0.7629563  41.9763517  83.9288521   1.5592659  43.0542374  84.6324444
  66.6154385  33.2753825  88.7342358  65.7022095  33.4763813  88.9387989
  66.8028831  33.7872076  87.9473877  66.8684292   9.6035600  86.6784477
  67.4988604   9.5493072  87.3966599  67.3907804   9.8662698  85.9205723
  55.6621695  88.0046940  40.3564978  55.5380011  87.9231071  41.3020992
  55.5206394  87.1201611  40.0191450  56.6944218  65.6198502  10.1853132
  56.4060259  64.8266602   9.7337562  55.8902931  65.9997559  10.5392718
  21.2596393  77.7376032  20.5577803  21.9925427  77.2992992  20.9901810
  20.9442449  78.3701134  21.2032986  84.8818588  90.4913712   7.9509991
  85.5633736  91.0792446   7.6251400  84.4018841  90.2234459   7.1673715
  99.0416145  91.4031219   4.7096172  99.0001488  91.8551636   3.8668963
  98.1383514  91.1389160   4.8843873  59.0703917  31.5914631  85.7397652
  59.3865871  30.9726691  86.3980579  59.3944740  32.4421906  86.0355091
   7.7811462  66.5226650  76.5380669   7.3814905  65.6683254  76.3749409
   8.4821010  66.5869617  75.8894062  71.6889858  23.8556600  79.8850203
  72.5917053  24.1219068  80.0595093  71.3551903  24.5208311  79.2830563
 113.5973644  27.8973174  67.2175598 112.8959179  27.7974963  67.8611851
 114.3520546  27.4644971  67.6167250  71.9745302  21.2806153  90.8861828
  71.1636686  21.7117310  91.1561298  72.4680805  21.9624805  90.4304409
  61.4571285   5.5617309  69.1311169  61.1371231   6.3116658  68.6296940
  62.2852659   5.8605701  69.5067739  17.5633895   8.5534751   0.7621426
  17.9480064   8.0497229   0.0448313  16.7458856   8.0979961   0.9632871
  75.0492001   0.0609773  89.3754292  75.7333660   0.3243060  88.7599564
  74.5156908   0.8472224  89.4912624 105.3041553  72.5350332  67.4492550
 105.9450531  72.3569727  66.7609406 105.2791977  71.7304754  67.9672289
  95.6048203  34.4054675  81.1813259  95.9161663  33.7647676  81.8207073
  96.0224915  35.2263546  81.4419651  86.1011028  15.0732946  90.0331402
  85.5544758  15.4519391  89.3446159  86.9610023  14.9686635  89.6258926
  12.3243713 101.5337849  16.9420147  11.6210294 101.6243458  16.2990999
  13.0567014 102.0223999  16.5662777   9.0427780  26.3428497  67.1265364
   9.4857574  27.1580935  66.8912125   8.2604969  26.6237354  67.6012659
 109.9092865  75.5317688  20.1314759 108.9990807  75.4806137  20.4232454
 110.1723194  74.6199512  20.0064039  -0.0251337  92.0500088  19.5096254
  -0.1642124  91.2802982  20.0613928   0.8189391  92.3998451  19.7949028
   5.5687219  94.2817497  12.0953798   4.6599448  94.4970036  11.8855631
   6.0807252  94.9792004  11.6859221  96.4470482  12.9369593  82.0201492
  96.6660786  13.0810177  81.0995483  96.9738770  12.1798635  82.2760582
 106.1425781  88.9029217   1.7582808 106.3606453  89.8348904   1.7692959
 106.8037510  88.5089493   1.1891873 103.4989548  37.9510450  81.9714069
 102.6749706  37.6265025  81.6081333 103.3077431  38.8522935  82.2310543
  77.4866247  23.2593346  91.6555786  77.1392250  24.0084004  91.1713791
  76.7304611  22.6872277  91.7865276  82.4063778   6.0849679  92.4136543
  81.9171715   6.8629134  92.6814365  82.3449326   5.4934490  93.1637001
  26.6498971  98.6078644  11.4603043  26.9835210  97.7988148  11.8480837
  27.4283075  99.1491413  11.3286948  91.7691422  19.1996789  76.2975931
  91.3774204  18.7927651  77.0703888  91.1011410  19.1142762  75.6173611
  78.8099098  56.2643528  62.5624609  79.6529913  56.0891199  62.1444464
  78.9460421  57.0807838  63.0432367  85.2177048  45.9892750  87.1137619
  84.6921349  46.5370369  87.6968384  84.5823765  45.6024551  86.5112972
  50.5798912  35.6722188  86.3728523  50.4715395  35.6107974  85.4237843
  49.8696327  35.1391077  86.7300034  15.7195759  99.2617226   2.9734012
  15.8387792 100.1920414   2.7822742  15.2632904  98.9161396   2.2061948
  51.3392496  95.5694008  80.4092979  52.0335865  95.3589725  81.0336685
  51.3374805  94.8342323  79.7963047  49.5431137  35.9175348  13.3305442
  48.6203432  35.8216906  13.0948651  49.8306322  36.6996312  12.8594911
  86.7343521  32.2203207  87.8226566  86.0234356  31.6338849  87.5639725
  86.3275337  33.0857253  87.8650856  91.5907001  82.6108456  17.6994455
  90.7464218  82.6319981  18.1499743  91.7777157  83.5277271  17.4979925
  12.3323548  76.7017460   5.1495147  11.8165374  75.9828806   4.7842756
  11.8439388  77.4906397   4.9142939   2.1659832  52.6217413   8.2613713
   1.7347118  53.4600639   8.4270543   1.8878043  52.3797369   7.3780352
 112.0322227  35.2075744  66.5583801 111.4515686  35.4525805  67.2788239
 112.8353119  35.7030559  66.7189217  87.4744511  36.4666128  84.9846172
  87.3653221  36.0122538  85.8200073  86.9540024  37.2647142  85.0762749
  91.9273663  45.1512098  86.1364746  92.5961494  44.4840050  85.9822178
  92.2525311  45.9265423  85.6789207  20.8560252  83.9414406  85.7417774
  21.1316180  83.0471706  85.9431744  20.7705116  84.3639278  86.5964317
  92.3146152  26.4133668  80.2929974  93.2096481  26.7386842  80.3895187
  91.8808079  27.0654368  79.7426844  21.3313532  44.4003153  41.0492706
  20.4709244  43.9816904  41.0746717  21.5202975  44.6150446  41.9627380
  95.6053734  33.5424471  70.2211666  94.8808384  33.2881594  69.6496582
  95.9600925  32.7131581  70.5416059  73.8056898  25.9434319  56.0593987
  73.0264282  25.8002734  56.5965128  74.2067337  26.7321110  56.4246130
  84.0259838  48.9648819  85.2740288  83.1527710  49.2580843  85.0137138
  83.9954853  48.0123949  85.1842308   2.1228710  49.7766876  65.1240396
   1.9281745  49.0279198  65.6876612   2.0393544  50.5373907  65.6990099
  79.0296125  29.8962331  12.6958036  78.8161945  30.6395793  12.1317816
  79.8052645  29.5053172  12.2935843  88.9823151  15.1185560  66.8349600
  88.5710907  15.8311856  67.3241329  89.9079990  15.3587592  66.7945337
  94.2713356  24.1743207  82.2167301  95.1466560  24.3748808  82.5481319
  93.7786674  23.9021349  82.9909515  57.3463711   0.0926182  -0.3356164
  57.1582851   0.8159325   0.2624318  57.8878054  -0.5075100   0.1771507
   4.6137860  82.7395630   7.4572998   4.8456004  81.8824005   7.0998496
   4.0304160  83.1224918   6.8021053  87.1534157  44.0517330  68.6232376
  86.4077091  44.6349239  68.7647963  87.1828651  43.5056019  69.4087982
   2.7571240  21.6148305  56.4447403   2.7902871  21.2703371  57.3371840
   1.8353960  21.5465856  56.1957598  94.1131687  47.1617508  64.9408150
  93.7822628  46.2742567  64.8026752  93.9218616  47.3483372  65.8599567
 100.5916691  30.2057505  64.8663473  99.7101116  30.5413699  64.7037220
 100.4785347  29.2575693  64.9325657  20.2511740  54.8251200  20.5655336
  20.8510041  55.5154991  20.8480382  20.4057074  54.7438908  19.6243882
  99.2320442  20.8801937  79.3048382  99.3289375  20.2591705  78.5829163
  98.4289265  21.3598657  79.1019917  34.2986655  85.0032997  91.6916084
  34.1648221  85.5264473  92.4819469  35.2335882  85.0872898  91.5042591
  72.3733902  27.6454186  87.9631996  72.2629070  28.1843543  88.7465096
  72.4521542  26.7516160  88.2965946  71.8905258  62.8152990  84.0453053
  71.0502815  62.8042507  84.5036697  71.7565536  62.2482491  83.2858753
   0.9120525  36.8595290  72.4623489   0.7584754  35.9692073  72.7785349
   1.8638681  36.9255114  72.3853731  93.6338997  77.5140238   6.7940050
  92.9965973  77.1453524   6.1823171  94.4112587  77.6779747   6.2600869
  69.0953398  23.4120250  91.6460037  68.5353088  22.6409554  91.7357159
  68.5449266  24.1420889  91.9293404  35.5261064 102.6224136  78.9812326
  35.5355120 103.2905006  78.2958078  36.4243317 102.2925949  79.0065575
   0.7551260  19.1814399  90.1370716   1.5533060  18.9554119  89.6595287
   0.2843696  18.3524132  90.2227116   4.9311709   6.9508016  43.7817001
   4.4423702   6.4100903  43.1612682   4.3631428   7.0065838  44.5501184
  92.3052406   9.3898392  61.5908146  93.0618191   9.2907935  62.1687460
  92.5324726  10.1260316  61.0228205  85.4421711  59.5472908  87.3546028
  85.0995922  58.9097071  87.9809856  86.3846970  59.5636654  87.5207424
  87.1988678  13.8519931  73.1237459  87.7346802  13.6072576  72.3692608
  86.9036961  14.7415698  72.9294300  33.0164194   1.4543879  12.4171579
  32.5700760   1.7094912  13.2245803  33.0622005   0.4992569  12.4602962
   4.7577178  75.6565189  26.1322951   4.7065321  76.6123390  26.1368799
   3.9250997  75.3702736  26.5078473  86.0338116  30.7476568  75.3909063
  86.8902206  31.1051798  75.1564693  86.2331295  29.9850535  75.9339905
 109.1430664   1.7174426  67.4422455 108.9524269   1.9475330  66.5328789
 109.2297173   0.7642010  67.4349976  41.8848610 100.5270195  90.4721546
  41.4281416 101.3338280  90.2340221  42.7817011 100.6599426  90.1651669
  10.4963517  48.4352636  83.6024094  11.1982560  48.1779528  84.2002010
  10.8174264  49.2352295  83.1862354 107.7336788   1.3754785  78.7751484
 108.2270908   1.0883451  78.0068111 107.6997662   0.6036069  79.3402100
  17.4283874  73.4727716   7.5019473  17.5675774  74.4069195   7.3463100
  16.7320609  73.4403944   8.1579298 105.2322006  52.1445227  69.7479010
 104.8498154  52.0126152  70.6154346 104.5942688  52.6876974  69.2850447
  89.9341583  30.1743960  80.1871490  89.3445396  30.8826995  80.4457855
  89.7277069  30.0151658  79.2661381 113.4481049  32.7656746  84.8131371
 112.8533554  33.4714627  84.5594215 113.8943291  33.0970097  85.5924606
   4.3785909  42.0577145  66.6130924   4.1192582  42.3229742  67.4954844
   4.3107718  41.1029482  66.6203594  11.1981261  37.5448036  72.4779987
  11.7259395  36.7515469  72.3863983  10.2930772  37.2378039  72.4244308
  57.3358583  25.2120376  85.2828121  56.5261698  25.0402689  84.8020458
  57.8433132  24.4053793  85.1932430 104.2611504  91.6208267   5.8352721
 105.1331425  91.9420624   5.6057763 103.7609005  91.6837788   5.0216234
  94.0816498  70.4695034  52.9690218  94.1385365  70.1617670  52.0644283
  93.4085751  69.9179554  53.3677673  80.4316235  10.1700866  56.4695454
  80.4489422  11.0358655  56.0616732  79.5504618  10.0954962  56.8358994
   8.7379634  27.2140193  79.4036674   7.8417248  27.1155930  79.7250700
   8.7307876  28.0423355  78.9240074  91.8275547  18.9647233  61.5761566
  91.1254311  18.6700320  60.9961510  91.5073109  19.7902834  61.9396448
  74.8906279  28.5810637  87.6437283  73.9929628  28.2533526  87.6988125
  75.0885391  28.8872862  88.5287666   4.5511308  77.9580116  85.3903294
   4.4618806  78.2967615  84.4995403   4.3111175  77.0340347  85.3203773
  76.5500069  25.6819057  90.4885960  75.9155703  25.6240654  89.7741890
  77.3971844  25.5309391  90.0693798  89.2436981  71.1789560  78.6463356
  88.9523983  71.1541891  79.5577955  89.4222260  72.1039867  78.4769964
  93.0786514  46.3852167  91.7407799  93.1991196  47.0940971  92.3725986
  92.2329521  46.5697241  91.3321590  83.8315201  34.1503429  89.7930336
  82.9158878  33.9434934  89.9802685  83.9348125  33.9578676  88.8610935
 104.1640759  41.3335180  92.0817471 103.2618141  41.6140604  92.2348499
 104.5182896  41.1776972  92.9572392  35.7856464 102.6919651   2.7105406
  35.6446004 101.9647217   2.1043646  35.1626492 103.3621883   2.4296264
  25.0674438  15.0651157   9.9786711  24.3279266  14.4652152  10.0759554
  25.4073262  15.1723611  10.8670461  94.1307640  43.3354187  80.5334759
  94.5747089  44.1689396  80.3773117  94.2215729  42.8575420  79.7090864
  56.4834785  38.3496141  85.3431797  56.2013149  38.5640764  84.4540119
  56.4851427  37.3927832  85.3697014  55.9421492 103.6408806  75.5492687
  55.6995058 103.8312244  74.6431065  55.1085997 103.6088371  76.0187387
 103.1753635  57.6737976  43.7944317 103.8620186  57.3316050  43.2220268
 102.8406525  58.4430742  43.3335495 102.1339417  25.7892203  87.4201775
 102.6219654  25.0126624  87.1462917 102.7836990  26.3378119  87.8596020
 102.2078323  54.2960978  71.3897467 103.0416012  53.9147234  71.6647387
 102.0408916  53.9117289  70.5291510  42.4910355 104.7293949  10.6805551
  42.3494768 105.4934883  10.1216757  42.2648525 103.9822674  10.1265907
 113.1799507  21.6663909  77.4489975 112.9269791  21.0702014  78.1538343
 112.3523521  22.0302105  77.1344376 113.0830383  43.8866234  68.1599426
 113.8295555  43.2968903  68.2655525 113.3611202  44.7020769  68.5769987
   1.1547154  26.6994619  73.8839865   1.1227097  25.7596016  74.0625095
   1.4331524  27.0911527  74.7118044  42.9776859   5.5096310  15.4630673
  43.8411903   5.8979511  15.3223372  42.5814772   5.4846346  14.5920777
  19.7731709  91.4323997   2.5580281  19.0011716  91.1431885   3.0444524
  19.6592116  92.3785496   2.4683894  61.1600733  13.9731717  10.5703461
  61.6716576  14.5063043  11.1788535  61.8150139  13.4932911  10.0633979
 103.1310177  29.0607047  85.9054089 102.7932930  29.1991591  85.0205326
 104.0667725  28.9011335  85.7823849  53.5623550  43.5655260  73.4964228
  53.8276482  44.2519665  74.1085100  53.1577015  42.8960514  74.0480518
  83.1687450  66.0361004  87.3027992  83.4265327  66.9564199  87.2500038
  83.9963341  65.5583572  87.3583317  82.0099258  24.8315072  78.4141684
  82.4255466  25.6936812  78.4022141  81.3836575  24.8574686  77.6907396
   2.8360507  35.1140666  76.7874765   3.0715096  35.8399010  77.3653650
   2.0039609  35.3798056  76.3960123  14.0835071  95.0266743   1.4339522
  14.3932927  94.3510437   0.8308122  13.2427764  95.3048706   1.0706170
   7.8686303  28.7644482  69.4244480   7.7832264  27.8110766  69.4289494
   6.9669902  29.0856433  69.4139481 108.3792782  27.4588871  73.9183617
 109.0777397  27.2292042  74.5312452 107.5777721  27.1534157  74.3432379
  27.9613924 105.4170704   6.8191779  28.9049268 105.4115486   6.9802505
  27.6627851 104.5572948   7.1155703  13.6739254 102.4042988   5.1107860
  14.3165839 102.6204300   4.4351336  13.5034633 103.2354832   5.5538553
 108.7301254  95.3612804   6.7325652 107.8237247  95.1337910   6.9397116
 108.8039112  95.2161884   5.7893074 100.2438450  52.6615810  76.7250156
 100.7483768  52.2995758  75.9965754 100.9049988  52.9859161  77.3364973
  46.1947203   8.9883590  13.1250918  45.3069115   8.6732495  12.9555655
  46.2674332   9.7898513  12.6068687  33.8054156  97.0914459   3.0859667
  33.0964136  96.8456459   3.6802143  34.3732715  97.6554775   3.6109817
  97.5563526  45.0530624  88.3016682  97.0499134  44.9052715  89.1003609
  97.0860386  44.5646572  87.6260281  84.2809582  44.1342020  85.3101826
  85.0922489  43.6361027  85.4098034  83.7097549  43.8026810  86.0030460
  16.0844803  93.3046627  29.4949746  16.8562484  93.6304379  29.9580932
  16.1404097  93.7031174  28.6264491 104.9750519  53.3790350  63.1031656
 104.5475388  53.0211878  63.8812494 105.4447460  54.1500616  63.4211922
  13.9473104  32.8397632  85.9418869  14.8145187  32.4355006  85.9693241
  13.3431673  32.1040940  85.8417320  98.0225372  46.3487101  79.0157080
  98.3078766  45.4699421  78.7655401  98.1586266  46.8775797  78.2295752
  12.3838437  44.8299837  91.8646049  12.2902107  43.9892435  91.4166927
  13.3286679  44.9797821  91.8977642 102.2294331  67.1672630  78.5839462
 102.8302383  67.0226574  79.3149328 101.8461609  66.3065529  78.4150600
  71.4191437 103.1268215   4.0455854  71.6794014 102.5216293   4.7400197
  72.2456789 103.4578228   3.6941427  87.8211918  50.5456976  92.8761811
  88.3907786  50.7474760  93.6185354  88.4159401  50.4789976  92.1291491
  53.5418892  24.9528503  72.8772593  54.4648695  24.8417735  72.6492214
  53.3251905  24.1715908  73.3860874   1.5445286  63.4095573  75.2120066
   1.9895995  64.2245817  74.9798965   0.6983698  63.6897135  75.5609512
  54.4223213  63.5784531  82.3319149  54.3223810  62.6670218  82.0570755
  53.7457085  63.7035322  82.9973316  20.6545043 102.9898357  11.8346822
  21.1004114 102.1524239  11.7076468  20.6988621 103.1440735  12.7783310
 112.6108932  65.3859043   1.3848819 112.3342896  66.2937689   1.5094021
 112.6756668  65.2833414   0.4353996 108.2168198  76.5995836  92.1271610
 108.7858105  76.8828297  91.4114475 107.9434204  77.4126482  92.5519085
  81.4035034  62.9175854  84.0197086  81.8458366  62.2180367  83.5388756
  82.1040440  63.5251570  84.2570305 108.1690216 102.3042774   4.6559650
 108.8018799 101.8860149   4.0722001 107.4906349 101.6419792   4.7877920
  11.4002633  97.9870892  13.2655978  10.4687822  98.1304073  13.0981636
  11.7727804  97.8015232  12.4036074 107.7532005  20.9531474  53.9914656
 107.8302765  20.6510448  53.0864668 106.8906116  21.3659430  54.0335321
  51.8544722   4.6829271  12.7084851  51.2340593   3.9613470  12.6053357
  52.7138710   4.2614320  12.7106071  89.4573689  77.0507431  87.8428555
  88.9994049  76.2120676  87.8987503  89.0670586  77.5834131  88.5357761
  90.6407356  80.6939220   2.7767232  90.6378460  81.0000992   3.6836302
  90.6793976  81.4946747   2.2537160  17.4246943  77.6894855  11.9866931
  17.4426210  77.7883482  12.9386055  17.4734938  76.7443752  11.8430877
  25.1388502   2.9204863  39.6610332  24.4536543   2.2583801  39.7524238
  25.7192516   2.7690700  40.4069805  27.5986505   4.8845109  10.1576483
  28.2698178   4.5783591   9.5476997  27.9036999   4.5914173  11.0162950
  83.5373688  55.5492878  65.1809549  83.0602837  56.2727880  65.5873728
  84.1719055  55.9747696  64.6042824  93.2954693  51.9963264  55.4251957
  94.2179298  52.2418976  55.3546190  93.3092499  51.1244011  55.8198929
  87.1280575  38.4558320  65.0888824  87.0248604  39.3932629  64.9251652
  86.3278389  38.0624056  64.7408915  59.1878891  28.3426142  91.0874462
  58.6070251  27.8996372  90.4688931  58.7088299  29.1307473  91.3435364
 112.3495007  72.1753836  86.0217857 111.9600773  72.9742432  85.6662369
 112.8690910  72.4738932  86.7682076  92.4645424  40.5320740  79.7041941
  92.3302078  40.9343386  78.8460779  93.4130192  40.4219627  79.7712612
  18.3101583  21.2612271  90.7872868  19.2529416  21.1456037  90.6688690
  18.0837595  20.6660676  91.5019703  88.5403255  31.9277529  92.9768151
  88.0526033  31.1705450  93.3008487  88.1748918  32.0940642  92.1078895
  92.4370670  63.2686806  62.1831799  92.5763798  64.2145920  62.2287607
  93.3160877  62.9013157  62.0904636 113.2207298  41.7209005  71.8940401
 113.3542728  40.7803631  72.0114613 113.6375523  41.9191456  71.0554743
   3.3460480  68.3861208  47.7975082   4.2945606  68.4770060  47.7064276
   3.0960655  67.7765989  47.1030855   6.2240559  56.2232685  70.9650898
   5.3790379  56.3546658  70.5350780   6.4894646  55.3405714  70.7069588
 103.7297058   3.3755791  69.4453049 104.3680668   3.4444082  68.7353849
 103.8377285   4.1854990  69.9438953  69.4060340 107.0160014  74.2605305
  68.9650646 107.4762591  73.5464287  68.9328876 107.2857978  75.0476551
 110.8526516  42.2666359  77.3517179 110.6392860  42.6210690  78.2149029
 111.5415573  42.8424692  77.0199633  14.0481961  28.3764195  69.2738199
  13.6398053  27.5738978  69.5984888  14.8115921  28.5016680  69.8375320
 110.6042290  56.1894226  57.6765728 110.5376625  55.4427147  58.2717419
 109.8735809  56.7570782  57.9218435  41.3272142  81.0813427   5.6545568
  40.7655954  80.3097153   5.7280552  42.1276617  80.8402729   6.1208194
  95.8698177  21.2092876  29.2706871  95.9573936  20.6034350  30.0065589
  94.9548721  21.4891624  29.2984414  23.5699654   4.1310480   1.5209028
  22.8749752   3.6228874   1.1025800  23.8326788   4.7690567   0.8574588
 100.5154037  55.2282286  68.2480288 100.1016140  55.3928614  69.0953255
  99.9049664  55.5945301  67.6081657 105.5782318  56.1212301  88.7851429
 104.8496914  56.1397886  88.1645679 105.2780151  56.6520786  89.5229053
  14.6295810  14.5784390  10.0684977  13.8577938  14.7609329  10.6044757
  14.3205965  13.9601004   9.4063663  34.9931502 102.9743958  11.5429592
  34.3983960 102.4086380  12.0353186  35.6725836 103.2138824  12.1732378
  12.6954663  95.9803295  15.9290242  13.1528890  95.1696110  16.1520338
  13.1679738  96.3207531  15.1693666  86.2995243  47.2093105  68.0281162
  85.8362484  47.9791069  67.6979303  85.6786251  46.4895535  67.9155874
   3.3714974  62.2607756  66.0628557   2.7120265  62.9539871  66.0909605
   2.8739071  61.4518404  66.1822605  95.0278473  41.5096712  88.2791233
  94.7833920  41.1147738  89.1161060  94.9071026  42.4496746  88.4134483
  99.1014957  35.8578467  65.5401707  99.7381592  36.5213823  65.2744389
  98.3828354  35.9514785  64.9148798  49.5550346  77.7568865   3.9055344
  49.5693970  77.7172136   4.8618039  48.6661196  78.0397081   3.6908758
 110.0800514  79.2777729  81.3225365 110.2626610  78.4078932  80.9673119
 109.5865822  79.1098881  82.1253681  89.7644424  18.8061929  63.8138914
  89.2221737  18.2968259  63.2116365  89.9185467  19.6328747  63.3566380
  68.3587027   6.3704956  88.0640602  69.0714550   5.7768005  88.3001614
  67.6227427   5.7927626  87.8620338  68.4166527  37.7215075  72.8841925
  68.2699871  37.9409814  71.9641113  69.1860390  38.2337761  73.1329155
   5.9321421  64.4631195  60.0236940   5.6724662  63.5508108  59.8952436
   5.2505964  64.8290348  60.5874586  93.7077618  75.7459974  89.8912621
  93.1430149  76.0387421  89.1760159  94.5921230  75.7773781  89.5263672
  76.8828535  45.8502960  82.6839161  77.5050926  45.3369522  83.1992054
  76.0958195  45.3066826  82.6478291  73.6158657  42.0570564  79.0152168
  74.3706512  42.5113630  79.3895626  73.6698294  42.2362661  78.0764914
   9.2116100  54.6604633  59.8948097   8.6186630  54.4399500  59.1764641
   8.6914295  55.2198744  60.4716110  98.4737206  47.7504683  68.9380455
  98.2873917  46.8727398  69.2713737  99.1616344  47.6179218  68.2857847
 104.7199440  44.0767622  85.1041508 104.5204067  44.9683189  84.8185921
 105.6555748  44.0935040  85.3055000  56.9741869  58.1284094  84.7389984
  57.7285767  57.6025343  84.4733334  56.9120073  58.8121319  84.0719986
  12.5164056  83.4642410   5.5215245  13.0032289  82.6618481   5.3333545
  11.6967475  83.1610870   5.9120238  98.6358643  25.2296114  61.9749832
  98.0932522  25.6340456  61.2980509  98.0915546  25.2499032  62.7620935
  27.4810100  49.1445112  89.4158363  26.6411352  49.4007254  89.7968769
  28.0461669  48.9797783  90.1706123  87.1158123  54.6737242  78.0387163
  86.7836952  54.9853897  78.8806152  86.9362545  53.7335300  78.0436182
  92.3946953  21.9388294  66.6736555  92.5165653  22.0293260  67.6187468
  92.5162315  21.0045004  66.5048695  82.0637131  15.9881020  21.9781876
  81.2230778  16.2662125  22.3418093  82.1034050  15.0487602  22.1578932
   3.2382977   7.7113026  73.3721066   2.4036132   7.9329443  72.9593039
   3.0613124   7.7600944  74.3115377 109.6811295   2.7795434  74.7952509
 110.0929546   3.6435676  74.8049307 109.2486095   2.7299061  73.9427853
 108.4211731  28.1374097  62.9237270 107.9414368  27.4565291  62.4520493
 108.7658310  28.7074637  62.2363520  59.8526335   8.1549060  37.9513097
  60.1651287   7.2987998  38.2439876  59.1926098   8.4030747  38.5986209
  84.6399689  48.7124634  66.3213587  84.8837757  48.3143616  65.4857111
  83.8168907  48.2854891  66.5589809  59.9521923   7.1442306  23.3366704
  59.9518394   7.1500814  24.2938519  60.2024603   6.2504411  23.1027079
  18.3316660  65.4599142  78.8528490  17.9183853  64.7924757  79.4005394
  18.5121834  65.0130081  78.0258560  25.0376844  96.2702179  17.0184290
  25.3301978  95.5548477  16.4537001  24.0900421  96.1519432  17.0833671
  72.6062965   0.9744075  19.7633922  72.0906782   1.7785570  19.7024429
  72.8075314   0.7494923  18.8550150  68.1385374  55.0594664  86.3025761
  67.9224014  54.7269630  87.1737576  68.7559652  55.7726955  86.4648151
  27.4929905  94.7313499  17.9763091  28.0772877  95.1694965  18.5950661
  27.6439214  95.1809883  17.1448767  12.0779943  34.5199919  57.4516726
  11.5218914  33.8831115  57.9004049  11.4643788  35.1527095  57.0783377
   3.6618546  65.6001663  83.5723877   4.1653374  65.9106731  82.8198433
   3.2116377  64.8181105  83.2531357  20.2108526   9.0952170   0.9061735
  19.2541206   9.0877146   0.8772291  20.4321837   8.5410964   1.6546354
  74.4193029  65.9697342  81.7152882  73.5459614  66.3525963  81.7984867
  74.6035242  65.6032181  82.5801373  78.2517338  84.5411777  86.3325214
  78.7088060  85.3464413  86.0898972  77.9273844  84.7072697  87.2176456
  55.9698009  79.5572758  75.6943035  55.6644583  78.6608982  75.8339787
  56.1096478  79.9027872  76.5759468  13.8960207  95.5384350   6.6942430
  14.4271362  95.1436996   6.0026282  14.4935656  95.6210804   7.4374402
  93.9242363  28.8591170  72.2558117  93.2830143  28.2911301  72.6829624
  94.5198727  29.1188788  72.9586411  50.7949066  15.4665017  19.6898496
  50.5477762  15.8367777  18.8424683  50.6587458  14.5244741  19.5884764
  45.9879208 100.3024960  14.7875166  46.4729357 100.2868843  13.9624393
  45.4790449 101.1123943  14.7509217  65.6462431  39.6829629  84.7020149
  66.1739254  40.2874231  84.1800880  66.0557985  38.8285851  84.5658684
 105.8020401  41.2652063  89.6490574 105.7506084  42.1564770  89.3037605
 105.2048588  41.2633371  90.3971291  37.0406389  86.5295506   0.4994312
  36.6949010  85.8098221  -0.0284841  37.9860425  86.3808155   0.5173251
  51.6553402   7.0145315   3.5003430  51.0510683   7.5972944   3.9602101
  51.8616438   6.3315171   4.1384354  85.5825806  18.8512242  87.1242523
  86.0758591  18.3120918  86.5059948  86.2511921  19.3507576  87.5929260
 100.5421352  34.4216967  80.4879570  99.8643970  34.6630168  79.8565531
 100.7337570  35.2343869  80.9559727 109.6539879  63.0849409  65.4181814
 110.2794743  63.8005972  65.3048944 109.1957283  63.0323458  64.5794487
  74.9844217  16.0331869  83.8298321  74.4770336  16.5941048  83.2431793
  75.6546831  15.6435812  83.2684135  87.5541878  13.7994766  81.4087486
  87.4332142  14.1354811  82.2968292  88.0429459  14.4873667  80.9569073
  67.0870304  47.3857784  91.8674946  67.2948170  47.0164013  91.0092258
  67.1632051  46.6467953  92.4710941  98.5595989  18.1936204  74.1001463
  98.5575104  17.3180735  73.7133026  99.4746685  18.3503294  74.3331814
 107.5320816  36.2175369  63.1268501 107.8543377  35.9555626  62.2644424
 107.9154873  37.0822906  63.2732677  23.0468512   7.9053652   9.3104678
  23.4917903   8.5079890   9.9063748  23.4607649   7.0578688   9.4737399
  86.7443371  27.6262879  52.2314787  87.4234772  27.4121809  52.8711319
  86.5311050  26.7891335  51.8192434 108.8682365  94.6839714   3.9260429
 109.6394634  94.7725296   3.3660439 108.1838322  95.1740837   3.4703887
   6.5510970  53.3438921  11.8524277   6.1719304  54.0830040  11.3768458
   5.9752446  52.6070070  11.6483963  95.4581642  49.0147638  68.9900732
  96.2779617  48.5296392  69.0839720  94.8115730  48.3492136  68.7551355
  28.1199193  82.3203087   7.5419372  28.3809423  83.2350063   7.4349850
  28.4498858  81.8836784   6.7566299  97.3980808  34.4695091  68.2346487
  96.6073799  34.0835834  68.6115885  97.5616264  33.9558864  67.4436522
 102.8099155  48.2544756  80.5465698 102.5304508  47.6597071  81.2425423
 103.1659222  47.6797342  79.8689508 112.7588272  41.7030096  35.2446580
 112.1702099  42.3266888  35.6698394 113.6369038  42.0135021  35.4656053
  13.9501286  64.8940897  71.2848520  14.7987819  65.2445364  71.0142851
  13.3322346  65.2382469  70.6398726  38.6196756 106.8169689  91.4862633
  38.0878258 107.2432327  90.8141994  38.5046673 105.8805752  91.3244724
 109.9547768  53.0191612  56.9651699 110.2694225  53.3149004  57.8194380
 109.0043163  52.9659510  57.0652914  51.0969925  12.3491740  18.4621978
  51.6859102  13.0619502  18.2144880  51.3812351  11.6071856  17.9284465
  -0.0782226  69.2378187  21.5694213   0.6808004  69.8191929  21.6154456
   0.1145534  68.5420418  22.1978831  97.0942211  37.9479432  74.4624472
  97.4666882  37.9138231  75.3435469  97.7375031  37.5001717  73.9129734
  69.6628046  77.0648336  67.1228456  69.5371103  76.7333937  68.0119944
  69.0870523  76.5241766  66.5820742  93.8047218  37.0482755  58.3479357
  93.4510899  36.3426852  57.8063488  93.4499359  37.8484178  57.9604721
   1.5251492  95.5529881   4.8830283   0.5840750  95.4491329   4.7422254
   1.6991629  95.0802231   5.6969333  52.9081440   7.2190797  13.9916289
  52.6777029   8.1205684  13.7670267  52.4249315   6.6843110  13.3617413
  49.7051239  21.7677116  11.5126121  49.0052414  21.4912915  10.9210122
  50.0531816  22.5660157  11.1153746  72.9112864  72.3488235  64.8908806
  72.9550600  73.2571602  65.1896095  73.5902596  71.8984795  65.3932953
  30.8510780  97.6998520   0.8463003  30.6317449  97.4831295  -0.0598768
  30.0584555  98.1092644   1.1932316  84.5487499  22.9033136  92.2186852
  83.6404228  22.6692224  92.4094296  84.4856644  23.5708237  91.5355492
  43.2756758 105.2110672  19.0768409  42.3856163 104.9556732  19.3193316
  43.7982082 104.4215679  19.2178214  95.4725742  66.7660809  74.6529675
  94.7753811  66.7934179  73.9976740  95.2656555  66.0019970  75.1911020
  52.4198294  20.7874250  62.0234442  53.2737160  20.9485102  61.6219950
  52.6121902  20.2377868  62.7831316 103.1724167  45.4356003  75.3387737
 103.0418777  44.5313501  75.0532532 102.4458504  45.6046438  75.9385633
  66.2663746   4.3810141  13.3804846  67.0590353   4.6008289  12.8909969
  65.7840300   5.2057880  13.4381413 109.9810982  82.9633617  86.8764210
 109.0958405  82.6326370  87.0286274 109.8777485  83.9140606  86.8348217
 104.0051174  53.5769415  60.4369497 104.3233776  53.6178017  61.3387680
 104.5399094  54.2153454  59.9650717  86.6711521  59.0049458  37.7473116
  86.0152531  59.1849804  38.4208155  86.6973114  59.8027897  37.2191143
 102.4472332  28.2152605  77.7127266 102.7999592  28.0152965  76.8456507
 102.0370293  29.0742445  77.6121616 109.3104458  88.6174107  77.9116964
 108.9398098  88.3900166  77.0589638 109.9015903  87.8930378  78.1167746
 100.8698750  50.7042551  55.6343174 100.9534645  50.8706570  54.6954012
 100.6101990  51.5477562  56.0048628  57.2839499   3.0455965  88.7379360
  57.0939398   3.9783546  88.6374855  57.6461363   2.7824751  87.8918743
  94.8104286  61.5736151  62.5264359  95.6970119  61.8839264  62.3422956
  94.8034286  61.4149570  63.4703684 109.9200821  63.3333063  38.9082861
 109.0526581  63.7372065  38.8821626 110.3491020  63.7359047  39.6633267
  94.7686005  40.3492975  63.7211943  94.6611500  40.4405212  64.6679592
  93.9570427  40.6989002  63.3532524 102.2404861  32.2133970  84.9273396
 103.0498600  32.7040792  85.0700951 101.9435120  31.9801450  85.8069038
  55.7399654 105.3882885  46.6408062  56.6691256 105.2472687  46.4591455
  55.3909779 104.5110893  46.7987871   2.4159144  79.3163300  26.7421174
   1.9990091  79.9877501  26.2021017   2.5330278  79.7339058  27.5954318
 112.7463150  52.7943277  90.8030319 112.6588249  51.8758440  90.5481339
 113.1819057  52.7660322  91.6549015  33.3288646  47.5288343  91.9441128
  33.4712791  46.6846418  92.3722363  32.7171135  47.9887438  92.5189877
  43.4124136  41.5459204  28.3979034  42.7274179  42.2077656  28.3031917
  44.2283964  42.0461226  28.4123778 108.9251900  51.1415863  76.2150335
 109.6788120  50.5935574  75.9960651 108.3530045  50.5689716  76.7258644
  40.6858778 105.6010437  25.1197553  40.2864552 105.8087254  25.9644794
  39.9566507 105.6159115  24.4998860 113.6726633  32.1010900  75.7306910
 113.1162639  32.8771925  75.7964087 114.4039174  32.2798753  76.3219070
  51.5655136  50.9235048  83.3768654  51.4901733  51.6447973  84.0015984
  52.4909449  50.6802750  83.4023094 110.2775383  86.3260365   0.1826930
 110.1259613  85.3809452   0.1897119 109.4756508  86.6944790  -0.1880736
  44.9150276  89.3667412   6.8706697  45.6500006  89.9478817   7.0664418
  44.4515944  89.2777920   7.7034676  82.1103668   9.0020919  77.6796293
  83.0550480   8.9127660  77.8054523  81.9704437   9.9433547  77.5762939
  58.9087915 100.3159523  80.2782822  59.7602987 100.6856155  80.5117512
  58.7482262 100.6280518  79.3877506  78.0499315  82.9692459  89.6831322
  78.3924532  82.3759937  90.3516865  78.4565115  82.6727962  88.8688564
  57.3004103   5.9774244   9.3897045  57.0961571   5.7272249   8.4886420
  56.5616417   5.6497109   9.9025983  11.1855388  70.4617262  68.8582516
  11.3223529  69.6673441  68.3420420  11.5236568  71.1670780  68.3065414
  96.1062717  69.0610027  91.2280369  95.4982948  69.3035793  91.9264317
  96.2916183  69.8837662  90.7753372 103.7997627  35.5790210  83.8580227
 102.8752136  35.3623962  83.9784527 103.8057423  36.5226555  83.6975574
  97.3392868  19.1167140  92.6314449  97.8011131  19.9399209  92.7904320
  97.8168869  18.4699559  93.1509018  16.2440789  95.6362820   2.6545024
  16.0119939  96.0379124   3.4917974  15.4046118  95.3896141   2.2663268
  88.0424690  49.0892076  90.0135326  88.3797646  49.9562216  90.2388096
  88.1066799  49.0477085  89.0593910  80.5977535  26.4921951  41.3878012
  81.0666561  26.3212919  42.2045946  79.6848202  26.6012812  41.6540384
  14.0218472   5.4997748  56.3536596  13.6493421   5.4095268  55.4765463
  14.2913735   6.4167398  56.4062262  95.4056263  21.5249705  79.6643448
  94.8045540  22.2452283  79.4741631  96.0678101  21.9107175  80.2378750
   9.1473204  10.7105696  56.6451120   9.0397185  10.8231056  57.5895643
   8.3276707  10.3089404  56.3568401  46.6113138  88.0179119  13.5685182
  46.4511204  88.9456940  13.3958924  47.1847153  87.7371120  12.8553593
  94.1598511  79.9296761  10.9042728  94.8919582  79.3462467  11.1039519
  93.8820648  79.6730995  10.0249338  13.0999458  54.6247530  57.1104050
  12.7316129  55.5079746  57.0885468  12.3458040  54.0476990  56.9899607
  67.5628948  39.9906111  77.1194029  67.9163408  40.4913187  77.8546572
  66.7752361  39.5744681  77.4696159  28.1890798   2.5361791   3.7889281
  27.3637176   2.5116631   3.3047706  28.4367657   1.6167714   3.8867703
 110.0833702  94.1400051  31.4291143 110.3924465  93.6032677  32.1589160
 110.3731632  93.6704922  30.6469321  78.3613348  82.3606777  74.6614695
  79.2268133  82.7500439  74.7862959  78.5403967  81.4557076  74.4061375
  45.1224136   3.6378655  12.2298503  45.3515053   4.5190555  12.5252354
  44.4920969   3.3241817  12.8783381  70.5605459   0.1054725   7.5647432
  70.7640934  -0.0036576   6.6358244  69.8896646   0.7879457   7.5843626
  95.0194645  33.9778495  62.3218489  95.0522137  34.2088604  63.2501745
  95.9292030  33.7924743  62.0889235  89.8941612  16.8387723  18.1066072
  90.8116913  16.7720115  17.8422105  89.4178963  16.9725347  17.2871506
  90.7548523  85.1907825  69.7153044  90.5633736  85.0506496  70.6426287
  90.1172924  85.8477211  69.4357061  19.9937427  18.2662821  19.3205106
  20.8859587  18.1363225  19.6419024  20.0630736  18.1600606  18.3717525
  47.1867180 100.1153946  12.3157644  46.3382483  99.7828579  12.0229244
  47.2212219 101.0115147  11.9810879  91.9446564  62.2409773  56.8795347
  91.3585854  61.4919519  56.9877481  92.7772331  61.9492626  57.2509527
   0.8945397  41.8826437  69.0132713   1.6730814  41.7613983  69.5567846
   0.7068003  41.0106897  68.6658764  25.6321168 102.7924347  -0.0020655
  25.2969098 103.0007267   0.8699922  26.5840411 102.8098965   0.0967739
  57.3328686  22.2013283   8.3067077  56.9898224  23.0947280   8.3264035
  58.2791233  22.3101425   8.2119143  51.5098286  22.0413971   8.0970454
  52.3041058  22.1988750   7.5865978  51.5895128  21.1336589   8.3901262
  29.8392725  48.6244583  10.9266770  29.7755909  48.9724874  11.8160880
  29.7025466  49.3848515  10.3615761  76.3502169  58.8381147  85.9936905
  75.7164145  58.7555838  86.7062378  76.3899755  57.9638290  85.6060410
 101.8770313  70.8927631  75.3255892 101.5255642  71.6457891  75.8006144
 102.7286053  71.1887026  75.0038958   1.9973619  12.7372897  59.3055296
   1.3499618  12.8916252  59.9934864   1.7934145  13.3884788  58.6342716
 110.1940727  39.2093754  65.3393126 110.6372356  39.7222900  64.6634769
 110.8932972  38.9473677  65.9382010 104.9727631  53.8879681  83.6473083
 105.0304031  54.5524883  82.9607773 105.3682327  54.3014526  84.4146824
  64.9242878   8.9589453  10.5962431  64.6893549   8.1396616  10.1605678
  64.2503214   9.5795083  10.3189254 100.5099201  40.0313473  80.5398655
 101.2659264  40.3015709  81.0610771  99.9798775  39.5073819  81.1404800
  82.4604797  36.2210369  78.8355112  82.3244858  35.4299450  78.3140612
  82.6588917  36.9010663  78.1917524  25.1610661  99.5691204   5.5236793
  25.0260973 100.2782917   4.8951188  24.3902373  99.6013165   6.0902643
  89.8633194  66.5412712  56.9600391  89.4203377  65.7291174  57.2058344
  90.7596111  66.4307117  57.2773266   7.9454172  47.3468828  84.4938564
   8.7150794  47.3805332  83.9257717   8.2823670  47.5516891  85.3660679
 102.5281715  36.6140795  87.0975685 103.4829903  36.6603923  87.1466255
 102.3099136  35.7624745  87.4762154  33.4411812   4.2833188   6.8574476
  33.4830260   5.2389836   6.8918812  32.7230930   4.0536153   7.4472082
 112.6006603  27.8717637  74.4199419 113.4298706  27.4216843  74.2584467
 112.7673817  28.4108591  75.1931286  73.2594824  67.3813248  56.1281252
  72.8896093  66.5467644  55.8401346  72.5598145  67.7903795  56.6374063
 104.2507458  35.7702708  89.8605251 104.0555477  35.0987887  89.2068863
 103.4635162  36.3141179  89.8876667   3.7213704   4.6001258  61.0340500
   3.1079960   5.3348517  61.0205698   3.7146723   4.2991707  61.9426823
  23.7717056  81.4595985  78.3750153  22.8576875  81.3547611  78.6392307
  23.7523460  82.1530437  77.7154827  49.7743177  82.0075607  12.0907640
  49.1560650  82.7108479  11.8923163  50.6158018  82.3303413  11.7683470
  96.7393780  84.6804810  89.4802475  96.5240574  85.6052399  89.6014118
  96.6851902  84.5438766  88.5343933   0.2933413  21.6594028  65.5665922
  -0.2394416  22.4344063  65.7447624   0.0607794  21.0438871  66.2617779
  23.1478953  36.8438244  69.2101145  23.8775969  37.4624658  69.2424917
  23.0271077  36.6645074  68.2776499  20.2211118  56.0304022  40.8138466
  19.3908584  56.4416504  41.0542345  20.8356190  56.7599869  40.7343674
  67.4688292  24.1834807  24.4637966  67.7775145  25.0827599  24.3531513
  66.5250635  24.2690992  24.5987463 104.6482277 100.0788975  70.2305508
 105.5697060 100.3112888  70.1160812 104.2045593 100.9167004  70.3627729
  87.6678181  32.2942066  61.5680313  87.4089241  31.4981914  61.1037445
  86.9550037  32.9110312  61.4017725  16.1836624  14.2812479  71.3744497
  16.9183648  14.8583043  71.5828943  15.4723752  14.8757219  71.1359119
  50.6211853  48.4463406  92.8545284  51.4588261  48.0113220  93.0137539
  50.8526182  49.3619967  92.6988411  15.9677875  54.9259520  91.8654346
  15.9453082  55.1994276  92.7824593  15.7316339  55.7132292  91.3748550
  99.2796135  32.3558235   4.5215648  99.4276905  33.1430364   5.0455868
 100.0419998  31.8043065   4.6971413  52.5275135  14.0323150  10.5715322
  51.8880844  13.7531900   9.9162072  53.1445885  14.5798337  10.0860655
 111.0516739  53.0742073  71.2615252 111.4047050  52.1855402  71.2181997
 111.7035770  53.6130190  70.8132648  12.9310501  70.4723501  83.0137157
  12.9578412  71.4243126  82.9173565  13.7282705  70.1653814  82.5819302
  43.6273479   4.9042779  67.8568029  43.1377983   4.7599992  67.0470190
  43.4027481   4.1554508  68.4091139  21.3224030  39.8054624   0.1496143
  21.4528084  40.6222820  -0.3320826  22.2028828  39.5419741   0.4171216
 102.0140743  60.8651924  59.5686865 102.3151493  60.1293135  60.1016712
 102.8140450  61.2298155  59.1900826 108.5699368  70.1385498  87.9343224
 109.2862606  69.7250128  87.4525547 107.7759838  69.7928762  87.5264263
  92.0091248  63.6076403  75.7269096  91.8244553  62.6937962  75.9437418
  91.8392086  63.6698294  74.7869635  98.0741119  53.6237955  75.3796053
  98.7984467  53.1570244  75.7963753  98.4984112  54.2829227  74.8302889
  96.1280537  63.5037231  87.6894188  96.8139839  64.0883493  88.0118084
  96.2821102  62.6778555  88.1481552 103.1564140  78.2499743  76.4221001
 103.6478901  78.0067587  77.2066545 103.3834076  77.5779676  75.7793617
  98.7583637  59.5897150  16.7609644  98.6715031  58.8142872  16.2065303
  98.9489365  59.2413044  17.6318967  54.6940517   0.4685345   6.7680830
  54.4956589   0.8512305   7.6227266  54.6282864  -0.4761594   6.9075829
  73.9635277  34.5363712  92.2026920  73.5754108  33.7139869  92.5014973
  73.2567883  34.9773908  91.7312527  52.3837709  40.1531219  15.7740068
  52.7404356  40.9955692  15.4924107  53.1082392  39.5373487  15.6635642
  89.1135311   7.8656197   1.3274299  88.5235500   8.6023396   1.4867944
  88.6151218   7.0959073   1.6019529 105.7679367  28.0313516  85.7060337
 106.1844349  28.8211632  86.0509396 106.2884045  27.8029442  84.9358559
  32.1784878  92.0156479  19.2972171  32.1838617  92.9712582  19.2422545
  31.4427853  91.8131161  19.8751020   0.3908154  52.7586317  83.5326195
   1.3136080  52.5043344  83.5368824  -0.0339963  52.1092319  82.9722214
  17.2604656  44.8927164  83.0034924  16.3946593  45.0773764  83.3675098
  17.1902692  45.1397848  82.0813942  17.2770751  41.9715738  81.8537426
  18.0155051  42.5795746  81.8178082  17.6160467  41.1604309  81.4750957
  33.2525253  50.7804966  63.1320381  33.5383725  50.5248737  64.0090656
  33.9243913  51.3916159  62.8297758  96.2727737  58.3219576  74.2393446
  96.0837460  58.7320805  73.3953667  96.4837360  59.0536499  74.8193026
 103.3791256  70.0855970  88.6228085 103.3975029  69.6332932  87.7794170
 103.5628986  69.4008255  89.2658806  77.2653866  14.5368993  11.8865919
  76.4594030  14.1069496  12.1725416  77.2164822  14.5260644  10.9307039
   3.0203775  72.0756340  66.3305712   2.6587608  72.6938581  66.9656038
   2.5158244  71.2731409  66.4634848  24.2212296  38.5126686  72.6029158
  23.6962891  37.7156138  72.6762152  23.6644197  39.1225052  72.1188736
 103.8648987  60.5088902  46.5038776 103.7090397  60.3298378  47.4311733
 104.4560432  59.8110962  46.2212658 110.0401592  43.6346674  85.0225353
 110.8655834  43.6185837  84.5381260 110.1978493  43.0752707  85.7830906
  44.2079306  58.7395096  90.8891773  44.4444132  58.1910086  90.1412106
  44.9457073  59.3413687  90.9875965  27.9679155  56.7252398  62.2144318
  27.9380751  55.7822371  62.3759317  27.0589781  57.0121813  62.3023653
 112.2572041  95.7196426  19.0139651 112.2041702  96.6055679  19.3724918
 112.6991081  95.2118969  19.6945167  33.0861568  82.1757793   9.4095945
  32.5154924  82.6163006   8.7798989  32.5062013  81.9382668  10.1331079
   8.3797693  62.4190712  29.5163393   7.6492357  62.0857477  30.0373459
   9.0968078  61.8097496  29.6918845  42.6158333   4.7668839   6.0842949
  43.2804108   5.4513216   6.1625028  42.1267033   4.9971190   5.2943742
 102.1405888  48.5359573  85.9070015 101.3136101  48.6829901  85.4479504
 101.8808270  48.2594538  86.7858124  36.4145875  92.3280811  18.9109790
  35.9106421  92.7928925  19.5789742  36.3364267  92.8742313  18.1287754
  67.4742746   7.4537498   4.5561615  67.0251703   7.0215541   3.8297033
  66.8436766   8.0977088   4.8784810  15.9817636  44.8911095  55.6303501
  15.7128751  45.3507948  56.4257240  15.2646542  45.0394726  55.0139284
 103.1657600  22.8712964  60.5252981 103.4075165  23.6612272  61.0088205
 102.2085762  22.8758121  60.5223513  90.8358192  62.1911526  64.6162701
  91.2260818  62.7728367  63.9639187  91.2560368  62.4387550  65.4398823
   8.9114469  50.6437302  64.1052437   8.3615452  50.2272463  63.4416294
   9.0063715  51.5475845  63.8047981  98.8962650  52.1509027  40.3939342
  98.1886196  52.6908636  40.0419188  99.2889404  51.7391253  39.6242046
 103.3695126  28.7351131  83.0663490 103.5491085  29.6753120  83.0641079
 102.6898575  28.6195111  82.4023247  25.6647587  43.0680227  77.7803135
  26.5848637  43.1816959  78.0184746  25.3605795  42.3500776  78.3355331
   9.2271829  42.4040079  72.8515577  10.1516151  42.6519728  72.8384304
   8.8924074  42.7708340  73.6698484 104.7249413  62.4284601  87.5075817
 103.9513397  61.8927717  87.6831150 105.0431824  62.1189594  86.6595459
  81.9152832  10.7687342   1.7174277  81.4377499  10.9342158   0.9045255
  82.7659416  11.1871219   1.5849116 108.1279659  16.3624191  82.9589176
 108.3909035  15.6625879  83.5566902 108.8800144  16.4762104  82.3778057
  32.4178791  15.5858338   9.0618825  33.0700421  15.9748495   8.4791452
  32.7921295  14.7404230   9.3097734 101.2817764  95.0555134  34.3005180
 100.3637600  95.2646255  34.4729710 101.4539433  94.2775440  34.8309469
  84.9068165  48.0204248  77.0236588  85.0958920  48.1290340  76.0916233
  85.5851173  48.5302401  77.4666405  51.8331337   6.4938575  20.1281452
  52.1731997   5.5996066  20.1581979  52.2707081   6.8913275  19.3752968
  25.0012159  69.9099302  79.2990923  25.3013301  70.0118160  80.2022934
  25.7115293  70.2707624  78.7685347  93.5268974  43.0658388  85.4116917
  93.7449265  42.1493244  85.2422905  93.3626747  43.4371376  84.5448589
  -0.1497412  51.1935329  19.7466242   0.2007532  50.3397322  19.4928133
   0.5389356  51.5850210  20.2839351  23.9942026  89.5458412  23.0130625
  24.7959399  89.4224358  23.5212183  23.9520931  90.4893684  22.8574729
  60.3485632  20.8041120   2.2545403  61.0053778  20.6466508   1.5762873
  60.8535814  20.8790851   3.0642104  50.4190779  74.5829153  88.6100292
  50.9614801  74.8998451  87.8878212  49.8908997  73.8841009  88.2241344
  15.6206083  89.6667957  15.2101433  16.4468801  89.6491814  14.7272396
  15.4768217  88.7574196  15.4720438  42.8464699  76.6010523  20.0531697
  42.5922966  77.5208473  19.9783087  42.3973417  76.2917137  20.8398247
  91.8154907  15.4966462  88.8845634  92.7095890  15.4330552  88.5487366
  91.2610912  15.3164852  88.1253433  43.8024187  23.5527706   3.8169220
  44.5943737  23.9347935   3.4386423  44.0549803  23.3115530   4.7081339
  69.1748095  60.1466799  22.3042989  69.7117567  60.8809185  22.0062971
  69.2264318  59.5080566  21.5931535 100.3190804  72.3710918  82.7246284
 101.0563469  71.8106413  82.4826336  99.9358845  71.9450140  83.4913349
  98.1795788  42.3407316  46.5817356  97.9797745  41.4348793  46.8178225
  97.3477364  42.8035069  46.6822720  11.2069857  54.9762440  63.4186697
  10.6496382  54.9653482  64.1967916  11.6434968  54.1243887  63.4247684
  97.0475960  25.9276080  87.7912807  97.7378178  26.5177941  88.0937672
  97.5169182  25.1910067  87.3996353  97.1806717  14.4927406   0.8398811
  97.1103764  14.1478419   1.7300135  97.9194260  14.0193903   0.4572511
   3.1638387  61.9725752  42.5326681   3.7992761  62.6852608  42.4653864
   2.7716634  61.9182825  41.6611862  98.8998795  66.9993162  53.5637331
  98.9712620  66.3004208  54.2138720  98.0970097  66.7981195  53.0829620
  23.3156061 103.2588673   2.0958070  23.4614658 104.1736698   2.3368396
  22.7347612 103.3010292   1.3361514  68.1352186  26.5589547  31.3156462
  68.0163383  26.8811297  30.4221678  67.3012543  26.1424327  31.5330076
  85.2845669  77.7302361  50.6616831  85.1903725  78.1112337  49.7886419
  85.2576542  78.4810257  51.2548304  13.2704926  88.2762623  62.0225811
  13.5172093  87.3918819  61.7519569  12.4217570  88.4261513  61.6061497
  34.7464609  57.9432678  71.0565090  34.2986465  58.6670589  70.6185341
  35.0034761  58.3000231  71.9067430  19.5322204  43.2977247   4.1009045
  19.1763663  43.5197830   3.2405043  19.6108341  42.3438358   4.0886599
 108.3555222  14.4892526  11.3424468 108.2632637  14.0112174  12.1665847
 108.9230442  13.9352822  10.8064699  23.5063648  77.9610872  68.2798958
  23.6876941  77.8488684  67.3467541  23.4005046  77.0696878  68.6122084
  98.5496235  18.2956183  53.6993694  98.7576294  18.4379029  54.6227980
  99.3998432  18.1636775  53.2799101  21.0954976 105.8946609   1.3546810
  21.6899419 105.3820610   0.8068509  21.5207934 106.7483330   1.4358847
  89.7908497  69.1995382  72.6279116  89.8613358  69.8184729  71.9011497
  90.4854679  69.4601870  73.2327223  96.1829185  85.0071335  56.0332537
  97.0468903  84.6008110  55.9648418  95.5757809  84.2698002  56.0962009
   7.6059711  70.3947067  61.3306570   7.2862643  70.9996557  62.0000219
   8.0571532  69.7091246  61.8232489 103.0360794  58.3670807  60.8721161
 103.0054665  57.6735735  60.2130699 103.7174988  58.0868912  61.4831734
  89.3786430  48.1945753  78.0490208  90.0262833  48.2815170  77.3495722
  89.8931503  47.9759741  78.8260221  76.4816952  17.4493468   5.4056662
  77.3577642  17.7788436   5.6060839  75.8911610  18.1381917   5.7106125
  35.9579039  67.1280098  48.9259720  36.8488574  66.8024206  48.7978029
  35.8965445  67.8906631  48.3507967  87.3905945  64.1833210  55.4032850
  88.0589581  63.5093451  55.2796745  87.1717358  64.4691181  54.5163488
   0.3071260  24.8835421  86.9426346   0.3718328  24.8606133  87.8973675
  -0.5744887  24.5616651  86.7545319 107.4295998  48.3356333  17.4017930
 106.6327095  47.9449892  17.0431864 107.5686264  49.1225815  16.8748999
 101.0650826  66.3092613  81.4545155 101.0028172  67.0356417  82.0747757
 102.0051575  66.1581373  81.3562489  40.4784250  89.7143650  11.7467630
  41.3955927  89.8765182  11.5259933  40.5110979  89.0414047  12.4266803
  99.5607376  48.4212923  35.7207870  99.6079445  47.7408648  35.0492072
 100.2353001  49.0524530  35.4701090 105.6986618  44.4570684  91.2255192
 105.8546925  44.0719652  90.3632069 104.8684597  44.9243450  91.1324883
  85.7458782  69.1117573  41.5134192  86.5606689  68.6162376  41.5959215
  85.2041817  68.8047457  42.2404242  41.5507746 102.5357723   8.9239842
  40.6944180 102.1389866   9.0835023  41.8387985 102.1578789   8.0930358
  70.2974701  86.1193657  75.6312084  69.7662067  86.1813259  76.4250278
  69.6862221  86.3064003  74.9187279 109.4239998  57.0550966  26.5195584
 108.5000515  56.8205070  26.6062284 109.5358849  57.2477770  25.5886507
  44.0023041  90.6591892  15.3924584  43.2896137  91.0344124  14.8752463
  44.0642023  91.2257767  16.1614728 102.3483467  56.1092472  23.9545965
 102.8995514  55.5842590  23.3742571 101.6240025  55.5283260  24.1871786
  88.2581520  81.5046692  89.9723244  87.3539066  81.4977360  89.6584511
  88.4330273  82.4228668  90.1786613  94.2557240  68.8332796  65.4455948
  94.0389442  68.0981445  66.0190201  95.1740265  68.6938858  65.2142429
  15.3032696  88.7695885   0.3428490  14.8831093  89.4513607  -0.1814504
  14.5768332  88.3063412   0.7598930 109.3661118 104.3896961  76.7349434
 108.7261391 105.1015091  76.7341375 109.6311855 104.3049049  75.8190966
  56.7202568  76.3651228  71.0287762  57.1733570  76.3071442  70.1876068
  55.8521986  76.7042351  70.8103704  11.4238262  52.9044056  59.4447327
  11.7768347  52.3484039  58.7501240  10.7274497  53.4052658  59.0199661
  42.6173258  96.6568661  27.3176956  42.7491331  96.1781883  26.4993286
  42.4551916  97.5595665  27.0437193 104.3055248  60.3919601  54.6324205
 105.0990963  60.0755119  55.0640917 104.5948982  61.1505890  54.1254902
  30.5977368  22.4790430  19.6436954  30.6995320  22.9868269  20.4486966
  30.7359171  23.1140232  18.9408886  14.8582530  34.6958065  58.1709576
  13.9143336  34.6898723  58.0121708  15.1513243  35.5451417  57.8408527
  61.5975237   9.2501485   0.9998652  60.8697605   9.0551603   0.4094663
  61.4788437  10.1716256   1.2301397  22.2225285  44.0023994  68.7056446
  21.2970281  44.1040230  68.9278030  22.6461887  43.7878942  69.5367479
  43.1567764  38.0205202  34.0677214  42.4201155  38.6316848  34.0741444
  43.8613558  38.4992456  33.6311245 109.8002529  62.9441690  85.3608704
 109.8388100  63.3104324  84.4773579 110.6212234  63.2181358  85.7697582
 111.6141319  74.0020037  49.3614197 111.4356232  73.7073326  48.4683752
 112.4868107  74.3925190  49.3148422  16.4805663  33.7239909  60.6949663
  16.3880217  34.2933798  59.9311161  16.1371994  32.8783870  60.4063749
  12.9597306  66.9714117  86.4280319  13.2517576  67.4463606  85.6499767
  12.6164019  66.1446571  86.0891628  42.4901390  88.4354877  16.1303174
  42.7858686  87.5458145  15.9373224  42.9281807  88.9805794  15.4766846
   3.8504395  79.4577122  76.4448786   3.6761084  78.9109707  75.6787729
   4.7991478  79.5847225  76.4376068  31.0508204  88.7423801   0.7006405
  31.3435531  88.5617065   1.5938914  31.7101145  89.3405914   0.3489131
  89.3572617  38.9102626  85.4722404  89.8400784  38.2409573  84.9873161
  88.7526798  39.2820120  84.8299694   8.5381478 105.6721020   5.1365519
   8.6464155 106.6220665   5.1820761   9.4295406 105.3331089   5.0545031
  15.6010640  84.8363018  79.6199465  16.5270329  84.6009064  79.5616198
  15.4240239  84.8810101  80.5595684  26.2547588  97.3108387   4.2746961
  25.7605648  97.9729271   4.7580549  25.7567811  97.1822262   3.4674105
  97.9900932  33.6212182  76.8379068  98.4825706  33.4988403  76.0262871
  97.1933937  34.0780520  76.5680695  -0.1787065  70.8902884  60.1426554
   0.3534822  70.8810329  59.3470907   0.1079161  71.6728640  60.6134558
   2.5384685  35.3880525  89.4971180   2.5753441  35.7157087  88.5984993
   3.1358415  35.9559393  89.9838257   5.6828529  70.4295206  64.5984697
   5.2702034  69.6857452  64.1594315   6.6187149  70.2293777  64.5801115
  25.1814294 103.9043522   7.3554170  24.6919584 103.4648991   8.0507827
  26.0073686 104.1579819   7.7673924  10.5308437  45.6753397  78.2557154
  10.1187754  44.9404144  78.7099314  10.2705073  45.5678606  77.3408890
  83.8473511  84.8655033  87.4442101  84.7803593  85.0314808  87.3093796
  83.8056660  83.9543056  87.7344227  94.5593166  67.0559502  85.5179119
  95.4879570  67.1991253  85.3352356  94.2028809  66.7182064  84.6962643
  54.1947651  90.0737476  17.4112761  53.6188507  90.7701302  17.0956588
  53.8137770  89.2695904  17.0585752  90.0804520  57.0855999   5.8919281
  90.6468487  57.2806644   6.6385007  90.3899479  56.2384224   5.5713964
   1.3315961  47.9843903  71.2553406   2.2026293  48.0128813  71.6512203
   0.7649603  47.6436663  71.9474840 104.8346996  46.7201710  68.6980915
 104.3942928  47.5457001  68.9000130 104.2432022  46.2753916  68.0910158
 101.8894577  49.8957920  65.8964062 102.5266933  50.6096125  65.9212923
 101.1078358  50.2860260  65.5052423   6.4988065  87.1159267   1.2409180
   6.9093060  86.2514591   1.2204338   7.1249229  87.6889420   0.7983453
  55.4276133  66.1312151  81.6625881  54.8993206  65.3569555  81.8566704
  55.9377861  66.2788296  82.4589348  77.1473694  39.1279554   4.9782392
  78.0376863  39.0156555   5.3113467  76.5999126  38.6300015   5.5853337
  97.6439476  55.2481937  63.2640791  98.3109760  54.6298981  62.9657269
  96.8245983  54.7550678  63.2226133  89.3617058  80.6442547  80.1858234
  90.0353336  81.3210678  80.1197052  89.6809578  80.0544930  80.8688259
  61.7607498   9.1733634  24.4096422  60.8081388   9.1256267  24.3290567
  61.9087315   9.7190630  25.1820040  67.2647572  27.3854613   4.5341009
  67.3730898  28.3361483   4.5078573  67.3463917  27.1605921   5.4609239
 106.2648201  74.0463257  78.9572716 105.7476902  74.2765045  79.7291660
 107.1663952  74.2547512  79.2021132  78.9271545  36.6247153  81.5279675
  79.8747110  36.6685390  81.6562557  78.7701511  35.7380080  81.2034225
  74.6899605  69.4958735  91.5272427  74.5005655  68.9997196  92.3236084
  74.2782688  68.9902735  90.8264542  38.2950377  22.3814797  11.0331142
  38.8150144  23.0618620  10.6054044  37.6985335  22.0719147  10.3515089
  93.4725761  55.2698708  82.4496269  93.1978703  56.0526419  82.9271603
  93.7366390  54.6531439  83.1323719  87.1432972  48.0695486  81.3369465
  87.0489311  47.2407150  81.8063736  86.3425255  48.5527372  81.5407181
   0.4694766  68.9255428  65.8714008  -0.0216817  68.3337116  66.4412498
   1.2846960  69.0920115  66.3446188  19.7572243  66.8543768  60.3694153
  20.5397844  66.9921446  59.8357010  19.1750431  67.5760078  60.1316261
 112.3483944  47.2415972  62.0632839 112.2558403  46.3171148  61.8330717
 113.2914829  47.4026155  62.0333576  28.9631844  82.6501274  62.0021152
  29.2376137  82.2771168  62.8398418  29.2310548  82.0009899  61.3516521
  12.8861284  36.3620663  61.3331461  12.5579834  36.5681982  60.4578972
  12.6803672  35.4350758  61.4539051 105.9809685  49.2300749  51.5218019
 106.3765240  48.7540913  52.2520113 105.3422070  49.8122072  51.9333220
  16.7598403  51.1327696  71.6791773  16.9805849  50.2146530  71.5224314
  15.8209169  51.1871290  71.5011311 106.5140820  43.6525011  88.8243389
 107.2878933  43.4738684  88.2899761 106.1537457  44.4614935  88.4611225
  23.3949184  84.9898338  72.0944405  22.7967572  85.6491470  72.4462032
  22.8276873  84.3773937  71.6260386  90.5844212  48.7505007  75.6183338
  89.8321342  48.1851912  75.4430676  90.9241104  48.9727592  74.7514772
 110.9153175  30.7660794  81.4486980 111.3719273  30.5864501  82.2705650
 110.0125885  30.9467363  81.7107677  25.4077959  35.8858085  65.7141972
  25.0181341  36.1208081  64.8720741  26.3448405  35.8134985  65.5326748
  98.1578541  66.4879131  75.2175283  98.7677002  67.0925999  74.7948265
  97.3024940  66.7176390  74.8544788  95.8244991  22.8177071   4.3810976
  95.1978683  23.5324168   4.4940540  96.2779617  23.0237031   3.5636827
  12.6646626  77.6249981  88.0466366  12.0556974  77.4065018  87.3411942
  12.1319032  77.5935888  88.8412571  62.3584270   6.6504830  19.3314826
  62.5100899   7.1242750  20.1492548  62.1502018   7.3335087  18.6940289
  22.3207140  74.8384047  90.6456470  21.5819216  75.1790905  91.1499691
  23.0402398  74.7936344  91.2753296  72.4529076  80.5392361  79.2259693
  72.3469973  79.6483040  79.5595264  71.8587780  80.5867767  78.4769821
   7.9401511  76.1827850  67.8503180   8.1394768  75.8299494  68.7174988
   8.1771940  77.1083736  67.9080582  97.3031902   4.1201258  22.1204233
  97.0927048   3.6572474  22.9313922  96.4584541   4.4337332  21.7974687
  94.3668556  76.0086060  71.0317278  94.1821575  76.8504715  71.4481163
  94.3232346  75.3732634  71.7463398  73.6087370  65.0394821   3.7743846
  74.0887022  64.3069601   4.1607481  73.5200739  64.8068666   2.8501225
   7.3856324 103.6715031  60.4636097   8.2742637 103.3160496  60.4783964
   7.0347965 103.4755421  61.3323689  42.8303337  51.3427544  75.5963230
  42.9402065  52.0382690  76.2447214  43.3466387  50.6128407  75.9382105
  84.8380375  43.3331776   7.3888677  83.8940716  43.4696102   7.4697441
  85.1436329  44.0758848   6.8680692  23.3563280  46.6902971  57.0384216
  24.2729950  46.5343094  57.2656298  22.9095340  46.7629242  57.8818274
  19.4175828  48.0366611  72.0099401  18.9514863  48.1427336  71.1806440
  19.9740028  48.8129711  72.0729589  80.2807903  41.9184685  57.9616928
  81.1392498  42.2776937  57.7375650  79.6564722  42.5553656  57.6140976
  77.9643250  26.2766385  11.0787773  77.3040628  26.5515375  10.4426026
  78.7965870  26.5518570  10.6943023  87.2792244  76.0187292  91.9941521
  87.1456337  76.8514061  92.4469662  86.6363716  75.4273701  92.3856354
 104.2173004  63.7949133  69.0368176 104.0236378  62.9652548  69.4731522
 105.0303364  64.0951395  69.4431067  25.3678131  57.3799944  62.7469254
  24.4226575  57.4431372  62.6093626  25.4604459  57.1498919  63.6714268
   4.2920470  27.7701783  84.9924755   4.4000185  28.7011862  84.7980595
   4.5658463  27.6828337  85.9055138   7.1347713  79.0644598  58.1424952
   7.7969342  79.6243382  57.7371454   7.2630906  78.2080078  57.7347565
  57.0373201  27.1746111  18.2909346  57.2087049  27.7826118  17.5717723
  56.0832977  27.1560264  18.3666551  33.0136704  78.9667511  72.1297169
  32.3483300  78.3869028  71.7591429  32.5140238  79.6445894  72.5848293
  21.3337898  56.5378237  84.2389202  21.2655592  55.6376553  83.9206982
  21.5947628  57.0445776  83.4699440  16.4504600  64.6743870  90.3897476
  16.2470639  64.9963665  91.2679195  17.1356273  64.0202570  90.5272007
  92.0889187  79.8744583  57.2169971  92.3406982  78.9634228  57.0658159
  91.6739941  79.8683023  58.0795670  91.6207123  73.9165878  64.5493221
  92.2270298  74.0162230  65.2832699  91.4801025  74.8086452  64.2320061
  16.7437911  84.6146584  70.2469063  16.7861044  83.6866379  70.4776001
  17.6040065  84.9602032  70.4853582  92.3084450  72.9107380  88.1487942
  92.1103287  72.0158815  87.8727341  91.8345642  73.4635353  87.5274372
  11.0871172  88.7152672  58.1580210  11.0263062  88.2514668  57.3229027
  11.4024031  88.0556774  58.7758970   8.5351521  67.9733276  62.4608374
   8.3116537  67.0445728  62.5216389   8.9461339  68.1762838  63.3011580
   7.0030969  69.8252726  73.0922604   6.3526702  69.1230106  73.0948305
   7.6372367  69.5668507  73.7610769  77.6130533  37.9104877   8.9109349
  76.9763708  37.8306818   8.2006562  77.8617525  37.0083261   9.1121447
  11.5655446  74.7736549  86.0847282  11.0480893  74.0032721  86.3192177
  11.0075986  75.5163288  86.3157272 109.1727638  27.9903913  25.3475380
 110.0614262  28.3425355  25.2974439 108.7694454  28.2388425  24.5157719
  30.3578472 106.1561108   4.8973319  29.8585892 105.3854942   5.1677364
  29.8278165 106.8986607   5.1870382  26.8374300  81.2366772  76.0596561
  27.2204208  81.5107441  75.2263260  26.3515306  82.0033264  76.3635969
  79.0329266  71.6722250  70.4890299  78.9991665  72.5239325  70.0534964
  79.6072865  71.8109035  71.2420988  11.5642071  85.1279259  85.1733589
  12.0182371  85.8707333  84.7754669  11.2975991  85.4445457  86.0364342
 111.1301613  88.3596992  70.0592184 110.2316380  88.4073067  69.7326899
 111.5194321  87.6261425  69.5831871 111.7038536  50.1217937  73.0700636
 111.7215061  49.2955065  73.5529423 110.9713650  50.0277281  72.4610949
 110.8904171  69.9177933  82.5752068 110.1777172  70.1129866  83.1836414
 111.6788197  69.9303389  83.1178856  28.1561589  73.2417774  71.3380814
  28.3379793  74.1815376  71.3335228  27.5771427  73.1062078  70.5880213
  87.2973633  46.7775679  85.5708218  87.9134750  46.1828709  85.9985828
  86.4468765  46.5538168  85.9487724  28.6256838  81.3833809  86.5949440
  28.9528966  80.8131218  85.8992672  29.3849826  81.5343380  87.1578884
 106.2819958  69.3718052  86.7805290 105.8834648  68.9692211  86.0089588
 105.8724880  68.9258051  87.5218964   1.0639889  25.4056597  81.3648319
   1.1345799  25.6771708  82.2799969   0.7592806  24.4992232  81.4067459
  18.1136799  99.4689369  23.9448261  18.5571587  99.4301701  23.0974436
  17.1921945  99.3098640  23.7403965  20.8820391  30.4323339  76.6399527
  20.5937076  29.5454836  76.8558073  21.8346953  30.4026031  76.7282295
  22.0102191  85.1441002  80.9293175  22.5252938  84.8594856  81.6842461
  21.2404466  85.5667496  81.3101673  20.5770254  69.0017128  48.2905197
  19.8132443  69.3799591  47.8548574  20.4878640  69.2691565  49.2052650
   8.6745733  73.6120939  67.1406269   8.0498505  73.1974268  66.5456390
   8.3400851  74.5013094  67.2574329 100.4124832  34.4963193  36.5542507
 100.7186413  33.9083123  35.8637834 101.1898041  34.6660590  37.0864105
  21.4983702  33.1925821  89.8625469  21.1532736  33.1711149  90.7551193
  22.1837044  33.8603878  89.8867321 109.9501133  89.8614216  72.4646997
 110.0640965  89.5213985  71.5772200 110.6523514  89.4519520  72.9701042
  54.3036842 101.2749767  10.1060045  54.0070438 100.4517746   9.7179794
  55.2242041 101.3414383   9.8521256  67.3026514  16.6510367   4.0381223
  67.9712820  15.9904325   3.8571042  67.6949072  17.4745858   3.7480634
  36.8897390  34.2032123  11.7906582  37.2940278  33.3917356  11.4835966
  36.1928082  34.3778419  11.1581838  46.3920212  86.6932583  28.9008379
  46.6507006  87.4131584  29.4762158  46.8703842  85.9349632  29.2360854
  35.5314088 105.2334499   9.7969854  35.0938272 104.4504166  10.1310790
  35.9517455 104.9455833   8.9866257  74.3415642   4.8907715  48.7221241
  74.4407701   4.0381029  49.1456175  75.2341223   5.1496112  48.4928274
  68.7403822  12.9859769   1.5841568  69.1351032  12.1342576   1.7712349
  69.1795969  13.5901737   2.1827093  41.4566374  19.3187380  10.0430822
  41.1289358  20.0041723   9.4608259  42.0988703  18.8434911   9.5159101
  13.0828321  79.8306608  74.3414545  13.3003211  79.4391012  75.1873922
  12.1841109  80.1430416  74.4460917  85.3283596  64.3975830  57.2009420
  84.6096611  64.8264647  56.7364311  86.0571480  64.4123888  56.5805626
   9.2567223  86.1466503  57.1716690   9.0900278  86.3728237  58.0867052
   8.5701573  86.6013145  56.6836691 113.1000328  22.1027327  88.6236858
 113.3234692  21.5748215  87.8571224 112.3310947  22.6044822  88.3530998
 107.2506523  26.1211038  10.4577875 106.6408157  26.5904117   9.8885065
 107.3535633  26.6909027  11.2199998  46.0667515  96.1863613  11.8458271
  45.5960131  96.9665909  11.5527833  46.9827890  96.3655186  11.6336751
   8.2258171  77.6588869  70.4300785   8.7285608  78.3850718  70.7990456
   7.8434694  78.0153036  69.6282005   4.5939869  78.3923960  88.9032936
   3.9211667  78.9267969  89.3251419   4.2036712  77.5205612  88.8417530
  11.5496361  41.2352610  17.0628369  10.8082235  40.6621742  17.2580540
  12.2928274  40.8242321  17.5043726 104.2033100  86.0560036  62.3132133
 103.8467789  86.7158508  61.7184687 103.5386276  85.3675079  62.3332834
  14.9980307  47.8446913  80.2504539  14.6470010  47.5172615  81.0785866
  14.2796350  47.7380657  79.6269464  52.1375561  59.9054527   1.9960153
  52.0113468  59.4598532   1.1583127  51.8994904  59.2516375   2.6533440
 103.5777283  51.4842272  83.6210537 104.0573311  51.0894775  84.3493366
 103.7672615  52.4200344  83.6886787  66.7158175  36.3153625  20.2981567
  66.8980455  37.2089887  20.5887747  65.8676958  36.3747764  19.8583925
  95.7177162  54.1961718  71.3136721  94.9531269  54.7547054  71.1734200
  95.3931904  53.3064938  71.1744261  65.5750799  19.2208910   7.2694683
  64.8104525  19.6380436   6.8725228  66.2632608  19.8842466   7.2185314
  98.5243893  78.5513926  78.5249901  99.1502094  79.0717697  79.0287685
  97.8781128  79.1865826  78.2166195  88.5602951  70.1575756  92.2258186
  89.0567207  70.5571270  92.9400730  89.2169762  69.9635220  91.5569782
  73.3943272   0.4677075  17.3770893  73.3048677   0.3940671  16.4269280
  74.3090487   0.7147267  17.5131035  40.1537895 102.7904797  49.4427443
  40.4710197 101.9439697  49.1280651  40.8262777 103.4146881  49.1700792
  50.2912617  85.5093765  85.0570107  50.4726553  86.4419842  85.1735687
  50.8721161  85.0727081  85.6800365  20.3903270  66.2414742   3.2701793
  19.9045634  66.0150480   4.0632728  20.1155663  67.1358585   3.0681640
  59.8394680  88.2183933  54.9703550  59.3079472  88.6693573  54.3143415
  59.2028522  87.8558636  55.5864096  49.3745375  83.2630444  61.6307545
  49.3343306  83.7736511  60.8221149  48.6624432  82.6286221  61.5490723
 107.5088501   1.5628295  69.6940088 107.7747250   2.0390795  68.9074183
 106.5876198   1.3497856  69.5450878  55.1332092  91.6713142  50.2261686
  54.4997501  91.1815357  50.7506514  55.9371138  91.6558170  50.7455206
  87.4841976  44.8860455  88.6341095  86.6900444  44.9044180  88.1000519
  88.0197430  44.1956425  88.2432652  56.0836744  15.9851146  76.0277224
  56.1037970  16.2577653  75.1103926  55.1552773  15.8488536  76.2167788
  98.5565853  26.3434672  42.3427057  97.9355717  25.7515883  41.9181347
  99.2459202  26.4745665  41.6916513  86.9377899  24.6078897  57.4880981
  87.8752327  24.7561574  57.6123714  86.5485191  24.8096347  58.3389807
  62.9478598   3.4333590  44.3505812  62.2895384   3.3375314  45.0388145
  63.0442047   2.5531298  43.9870596  19.4451344  76.6059732  66.2429667
  19.5914960  77.5494194  66.1742592  19.5238233  76.2853336  65.3445053
  31.1282277  89.8681545  74.6514606  32.0492339  90.1078129  74.7541237
  30.9071803  89.4129562  75.4639673  88.1114864  30.0273681  68.4636116
  88.2607651  29.5185709  67.6666975  87.5472832  30.7487059  68.1850672
  94.5930958  30.2871060  54.3329573  93.8733673  30.7021260  54.8083210
  94.1748428  29.8755550  53.5767078  76.9824314   4.3261698  62.8092909
  77.2019911   5.0319088  62.2010517  77.2631693   3.5280856  62.3615408
  15.7639217  46.3739347   4.0483317  15.6446242  45.5309010   4.4857007
  15.9407926  46.9897842   4.7594455  37.6530600 103.7083817  55.2260590
  37.0182419 103.7672043  54.5120764  38.4437180 104.1207504  54.8781443
   6.7962354   4.3590939  86.0968018   7.3883241   4.0641728  86.7886734
   6.8678606   3.6879647  85.4180622  39.6072745  88.1330585  77.4166441
  38.9315772  87.4719524  77.2662973  39.2355537  88.7075424  78.0859900
 101.2162304  24.0456700  73.3537197 101.3542747  24.0075493  74.3001461
 100.3395844  24.4169235  73.2542992  50.8534431 107.2455025  84.4288349
  51.7453289 107.4146080  84.1252327  50.8823109 106.3520527  84.7711086
  94.6361637   4.8404494  62.2344589  94.2077732   4.6957731  63.0781364
  93.9245987   5.0874299  61.6437721  61.9261217 105.4273891  43.6434174
  62.3412371 105.9713840  44.3127346  61.3319683 106.0222816  43.1858921
  78.5923147   5.7816732  81.4486599  78.9197922   6.6572499  81.6544724
  77.6751900   5.7985514  81.7222023 113.6993790  37.9611611  74.9892616
 114.1856956  37.7520394  74.1917706 113.0893898  37.2312880  75.0961494
  91.7222977   2.0083681  34.8255277  91.3183784   1.2433095  35.2351236
  91.0032082   2.6313087  34.7202373  92.8100300  12.9516661  78.9567995
  93.0785275  12.0485926  79.1259241  92.6212215  12.9737103  78.0186653
  57.7081108 104.0276337  62.2905874  56.7607927 104.1646004  62.2981691
  57.8473902 103.2845974  62.8777313 103.9029694 103.7289429  68.2950783
 103.1929779 103.3902454  68.8404560 104.0810204 103.0261707  67.6700640
  33.7327361   2.0936362  70.2324533  33.1737447   1.4208238  70.6211472
  33.8397503   1.8193018  69.3216753  96.5830135  13.4573066  24.5767069
  97.1763229  13.5942841  23.8381624  95.8177090  13.0292296  24.1929221
  19.5029604  76.5508032  51.0633469  18.7758410  76.6390562  51.6795778
  19.0828180  76.4710951  50.2069807  50.7748413  97.1108437  74.3233109
  51.6368532  96.8880558  73.9718437  50.3083658  97.5010872  73.5841608
  94.0805054  91.3810921  52.5258446  93.7908268  92.2589493  52.7742100
  94.4379234  91.0096836  53.3324003  64.2585373 104.7119331  78.9579725
  64.7257805 104.4868469  78.1534576  64.8165798 104.3781662  79.6604156
 107.3375320  24.0958619  59.3578053 108.1971836  24.4502878  59.1306210
 106.8603420  24.0747094  58.5282993  60.9229755 105.6598282  84.8385143
  60.9429979 106.1899090  85.6352901  60.2560139 106.0747528  84.2914963
  42.5666523  99.2069912  51.9806337  43.4974241  99.0808392  52.1649790
  42.4836016 100.1426411  51.7965555  57.5741434  32.6661229  77.4147177
  57.5696325  32.1553826  78.2242584  57.8821039  33.5327411  77.6799870
  82.7171803  16.0325110  34.4027710  82.8281116  16.8884647  34.8166203
  83.1297302  15.4178238  35.0095630  72.3550224   4.6314839  66.4150381
  71.8439198   3.8884366  66.0942793  72.6787376   5.0595152  65.6224298
 109.7325420   3.5354206  69.3972969 109.1386604   2.9434645  68.9356518
 110.4554367   3.6745837  68.7855053  89.4283485  25.5236340  59.0137959
  89.7610283  25.1175022  59.8141766  90.2050781  25.6508541  58.4690571
  28.7250710  68.6888170  31.3373065  29.6307683  68.3978128  31.2312078
  28.2140183  67.8796530  31.3549495  36.3536024  20.1494551  51.8558455
  36.3906002  19.3417072  52.3681021  37.1980691  20.1871562  51.4067507
  56.5945339 102.7397251  79.3751717  57.2658873 102.1005344  79.1365290
  56.7120600 103.4551620  78.7502146  47.0481920 106.9178104  77.3363066
  47.2662926 106.0046577  77.5229073  47.5459099 107.4196529  77.9818010
  19.4336796  45.4600430   8.5993701  18.6112678  45.9355593   8.4820950
  19.2829049  44.6134520   8.1789124  77.3692751 103.5911942  63.7344408
  77.2080517 102.6596260  63.8841629  78.2508230 103.7397194  64.0765715
  61.1116982 105.3873920  76.1124659  60.2142859 105.6729412  75.9411621
  61.3353729 105.7906723  76.9512558  50.2630568  13.8687074  57.1466780
  50.8260870  13.6170423  56.4146328  50.8505249  14.3105125  57.7598047
  94.8641396   5.6447148  51.5740252  95.0763416   4.7177058  51.4651394
  94.4993782   5.7048219  52.4569559  52.6560879  97.7437115  59.5322895
  52.4576712  98.1606293  60.3707647  52.1117401  96.9564438  59.5215130
  77.5835323   2.1005481  90.9312248  77.4179888   1.2756439  90.4747581
  78.4237432   2.4013706  90.5851364  91.5164185  20.2296519  72.1803761
  90.7907772  20.2494431  72.8043079  91.2347317  20.8025432  71.4671564
  27.1871781  61.8049097   6.9088042  26.4920640  61.7392874   7.5635880
  27.0445919  61.0543823   6.3320833  26.3099241  18.5537207  42.2092199
  25.6671357  18.9112806  42.8217602  26.9524503  18.1138873  42.7659416
 105.1280689   4.4999135  66.9186115 105.2918053   4.1881019  66.0285568
 105.9504128   4.9123308  67.1829891  60.7242870  11.7272794  84.5307827
  61.3170385  10.9914851  84.3775368  59.8548555  11.3292968  84.5747375
   4.8180369  82.6910400   3.6498231   4.5756716  81.7677116   3.7202337
   4.0976149  83.1605148   4.0703261  73.4834146  13.5447454  63.9571047
  74.1882420  13.3016813  63.3567953  73.8759899  13.4767759  64.8274469
   8.4825796  87.4797440  10.8512807   7.7675354  88.0763817  11.0725796
   8.2619977  87.1549225   9.9783176  37.0631361  16.8779826  83.8311958
  37.9671764  16.8157470  83.5228634  37.0041561  17.7478647  84.2262363
  67.6170921  79.4533253  82.3303699  66.6694880  79.3755150  82.2198105
  67.9325056  79.7641802  81.4817715  51.8606758  86.5894890  63.6810827
  52.3469687  86.7760277  64.4841766  52.5170088  86.6409397  62.9862356
  70.2927828   0.2236138  49.8805571  70.3426695   0.3165428  48.9291859
  69.3550348   0.1847215  50.0685644  59.2801237  18.8364041  15.3636277
  58.6788273  18.6069572  14.6550894  59.0197372  18.2714415  16.0911226
  63.5974026  21.2442350  78.2424212  63.3567142  21.7078638  77.4403334
  63.8592005  21.9362617  78.8497019  63.3377504  26.0324621   8.5415232
  63.6457396  25.4092431   9.1995299  62.4246836  25.7886481   8.3895540
  59.0515804  84.8427773  92.1290874  59.9858713  85.0502777  92.1127129
  59.0072775  83.9181519  91.8854904  53.1271982  97.3635769  67.7530622
  52.2175741  97.0797539  67.6621580  53.2534790  97.9938030  67.0437717
  37.2157764  35.8849883  85.3121376  37.1862578  35.6823635  84.3770981
  36.3881540  36.3332438  85.4863167  81.8735027  19.1547143  50.4385185
  82.5584888  18.5049081  50.2811098  81.4040089  19.2141676  49.6064854
  53.8037968   5.2733332  47.4858522  53.5310555   4.7735408  46.7164040
  53.0301285   5.2867740  48.0493164  75.9977245  15.8410668  76.7334270
  75.7360554  15.0233328  76.3102531  76.2556076  16.4130104  76.0105085
  41.1939383  21.7456865  73.1177282  41.8114805  22.4628472  72.9743528
  41.7401218  21.0122156  73.4004593  70.5873775   4.6818292  72.5788164
  70.8276510   3.8177797  72.2442722  69.6808386   4.5824906  72.8695917
  75.9644556  70.0706100  25.7056451  76.0816860  70.6383610  24.9439692
  75.1561117  70.3810406  26.1136198 104.0851307  14.7722518  53.8039589
 103.4241867  14.2462778  53.3537006 104.7392845  14.1369557  54.0950108
  94.8188210  49.6958971  64.5448589  94.6484089  48.7557507  64.4872475
  93.9897251  50.1052094  64.2972755  98.3716106  23.7187028  32.1261549
  98.2759094  23.4399915  31.2154436  98.6463451  24.6338439  32.0689535
  80.5350685  81.0095978  57.2219372  80.1044846  80.9337997  56.3704157
  81.4459133  80.7693481  57.0519829  70.5291557  18.9259410  31.6055679
  70.7134247  18.4054899  30.8236432  70.5368948  19.8321509  31.2974167
  87.1273518 105.8517170  71.7870092  86.7016697 104.9944687  71.7988348
  87.4659538 105.9632683  72.6753426  85.3407574  91.1477661  61.4538670
  84.8944473  90.6369972  62.1292591  85.3249264  90.5859280  60.6790686
  86.7611694  13.3864892  50.2062702  86.9059944  13.9664996  50.9538317
  86.4341164  12.5743115  50.5930996  67.2906208  10.2157223  41.1402035
  67.3972988   9.2787290  40.9762096  68.0048370  10.4371238  41.7377853
  69.3021297  41.2505722  70.6447220  68.7672377  42.0085144  70.8806038
  69.7827768  41.5298128  69.8654699 109.0678596  29.2477608  70.4635239
 109.9660015  29.3896246  70.7626009 108.6353588  30.0914025  70.5955982
  89.3283463  24.7655869  53.3476686  89.1667938  23.8619924  53.6190510
  90.0266647  25.0687289  53.9279270 106.1676598  26.3019109  44.0611029
 105.4374790  26.7310834  44.5070553 106.8962288  26.9165635  44.1484165
  68.9646816   7.3438501  78.1580830  69.6655035   6.7461920  78.4186268
  68.7902308   7.8646427  78.9420319   9.8666388   4.8359144  55.9769678
  10.6830370   4.3466887  56.0788679   9.3525642   4.3176964  55.3577662
  65.9702826   4.7876531  63.1000614  65.6160927   5.1644117  63.9055634
  65.8729172   5.4816353  62.4480343  77.6573133  15.2497387  68.0451727
  78.1696463  14.7753215  68.6999083  77.4228287  16.0724318  68.4746218
  98.6068821  15.3134620  47.1600294  98.8607311  14.4362807  46.8730736
  99.2558384  15.8931112  46.7611599  75.5386686  16.4897883  35.7530451
  75.1215458  15.6947219  35.4212236  74.8479414  16.9360995  36.2428713
 101.2602711   0.6981197  85.9284210 101.3204002  -0.2203225  85.6655884
 100.3228760   0.8531267  86.0445881  50.3423166  88.3480740  54.2112350
  51.1427832  87.9103565  53.9215899  49.6369600  87.7587509  53.9440203
  20.0856113  93.6857128  35.1874900  20.4755235  94.3341064  35.7738256
  19.1466570  93.7344456  35.3669977  67.6908827  36.8104196  61.9484758
  68.2035971  36.4404655  61.2298059  68.1375933  36.5109754  62.7403212
  76.4308310  67.0158386  48.2144451  77.2698832  67.2530270  47.8195190
  76.0383558  66.4027500  47.5928974 101.2352562  20.8899736  55.7238722
 102.0133018  20.5204201  56.1413717 101.4217091  21.8263936  55.6561518
  13.1877589   3.2887435  62.9913759  13.2855785   2.7912566  62.1794844
  13.9454019   3.0368817  63.5193682  68.5887527 104.2949009  58.5185575
  68.8623285 105.1717472  58.7878799  68.5512018 104.3386269  57.5630951
  91.5253353  16.5679634  67.2845364  91.0214138  16.7049229  68.0867386
  91.5111160  17.4180007  66.8446875 101.4876556  19.8087680  59.2252111
 102.3176289  19.3390429  59.1431856 100.8407784  19.2223501  58.8329172
  25.5832243  62.6707983   9.5703834  26.2373281  63.1470823  10.0817847
  25.4604983  61.8485641  10.0448334  79.0088558  34.7551060  77.3841715
  78.4128571  35.4758787  77.5878954  78.4919977  33.9650488  77.5419760
   3.7141702  40.7755947  87.3642731   3.3989105  40.1651621  88.0307674
   4.2853704  41.3773489  87.8416157 108.2569695   9.6812278  66.9471359
 107.8805256   9.4356871  67.7922583 108.8124275  10.4358923  67.1425390
   4.9135324  42.0785475  40.3519917   5.7970047  42.1588850  40.7115126
   4.3595874  41.9077778  41.1137104   1.4970267  38.9451241  62.8346872
   0.7099420  39.3111086  63.2381535   1.9891600  39.7089434  62.5336552
  75.5546570  10.8869886  71.0136461  75.9094048  11.7059135  71.3596869
  74.9330282  10.5946434  71.6802359  93.5538769  11.4511871  35.8005238
  92.9095268  10.7436478  35.7796001  94.3833447  11.0141182  35.9933352
  96.3247523   0.3119538  53.6495638  96.6741404   0.2421162  54.5379782
  97.0928845   0.4752228  53.1022549  26.4745378 107.0839119   4.8670378
  27.2429395 107.6531696   4.8252505  26.7109227 106.4087868   5.5030841
  53.5508156  13.1836963  91.9355965  53.7397814  14.1112971  92.0773125
  53.0832672  12.9111683  92.7251244   2.6170877  17.6653564  57.5301790
   1.8342003  17.3131371  57.1067858   3.0696720  16.8956637  57.8751040
  69.2646694  26.9175029  47.0513678  68.8111734  27.7442336  46.8867826
  68.7266493  26.2579036  46.6135359  38.7415838  94.1685009  70.8581114
  38.5468316  93.9878178  69.9385166  38.1532097  94.8867321  71.0909033
 107.4840260 107.3727703   2.8111014 107.3531818 106.4310265   2.9217190
 106.6908932 107.7688122   3.1721154 107.2261906  34.6191072  50.9482956
 108.0055904  34.1632485  50.6305408 107.4952602  35.5352545  51.0154390
  81.9053745  27.1453023  60.7545137  81.7258549  26.7427135  59.9048471
  81.3707352  26.6475844  61.3731194  98.1669426   6.8734068  87.1023846
  98.5177422   6.7136806  87.9785442  98.1425095   7.8271091  87.0243549
  73.5511684  17.7390242  75.7161140  74.0265942  18.4071863  75.2223921
  73.9254713  17.7798522  76.5961504  78.1424999  39.1257644  77.2790861
  78.6571503  38.9563680  76.4899874  77.6639605  38.3110714  77.4324083
 109.4962692  16.8931544  35.6525111 108.6358452  16.6745615  35.2945852
 109.5126820  17.8500688  35.6691718  72.8342056  43.1307268  76.5461969
  72.3929691  43.0310869  75.7026243  72.5009012  43.9576006  76.8946409
  85.4861259  39.6917248  57.8411579  85.6364250  38.7485075  57.9042578
  84.7883701  39.7801661  57.1918964  28.3410311  61.6173029   1.1270683
  27.7032661  62.1222210   1.6315897  28.8522601  61.1493063   1.7872643
 105.8321571  39.0472364  70.7808065 106.6302490  39.0191889  70.2530813
 105.9824276  39.7574067  71.4047527  38.3265233  94.1587067  91.1392403
  37.6066828  94.6594620  90.7554340  38.8062334  94.7960091  91.6683483
  52.3025465  30.1638556  47.1158504  51.3472271  30.2222657  47.1022034
  52.5475264  30.0316310  46.2000275  80.6651688  91.0746670  63.6976242
  79.9334383  90.6267071  64.1220570  80.6788921  90.7212830  62.8081512
  10.9155166  47.6569986   8.6544859  11.2058020  46.8199968   8.2920033
  10.5587888  48.1321859   7.9040366   8.1225646  13.1410575  19.8228204
   7.6619500  13.8207483  19.3307984   8.8692987  12.9099000  19.2703831
  71.0393000  90.7025528  80.9892368  71.8842936  90.5049992  80.5852699
  71.2038279  91.4821911  81.5196514  78.3273602   6.0096484  58.1006575
  78.4923649   6.4068580  57.2455359  78.7554073   6.5965623  58.7239838
   3.7884271  35.0467730  29.3658996   4.3847054  34.7756839  30.0638914
   4.3347222  35.0713038  28.5802841  97.7342415  40.4259586  88.0249691
  97.5914383  39.6805692  88.6082649  96.9152927  40.9200573  88.0628395
  70.9586430  90.5357075  50.9483004  71.7524338  90.8594894  51.3740921
  70.4136133  91.3142300  50.8339405  65.8097076  81.5480137  72.2989082
  66.0554552  80.7055759  72.6811838  66.6344881  82.0285797  72.2280216
  44.6583700  34.0363836  79.0374613  45.5711842  34.1301155  79.3099022
  44.2608213  34.8841190  79.2362785  80.7956028  11.1989188  79.8883581
  81.2666321  10.4514253  80.2566242  81.4845181  11.7939258  79.5923948
  73.5819340  23.8982058  75.5040741  74.1443491  23.5885859  74.7941065
  73.2864332  24.7619486  75.2162218  96.3782787   7.4111408  49.8197794
  95.8371639   7.1184462  50.5530930  96.3396645   6.6904688  49.1909933
  94.7702408  36.1360812  53.2212496  95.3091431  35.3523707  53.1134558
  95.3058434  36.7235827  53.7543583 110.2617359  32.4665570  53.0602169
 110.3868866  31.5321183  52.8947067 110.6886578  32.6197815  53.9031267
  16.4204586 100.4098701  87.8085041  16.6638780  99.8621941  87.0621586
  16.3937736 101.2988567  87.4546337 101.4829445  19.9365902  12.2711873
 101.7744350  20.5431962  12.9518449 102.1663094  19.2671382  12.2383368
 101.6643906  28.5370708  50.5139637 102.0596886  29.1366744  49.8811531
 102.1402073  28.7004638  51.3282967  64.6485329   8.8681865  39.0006328
  63.8630486   9.2200899  39.4194484  64.4635630   8.9198589  38.0628991
   8.3162606   6.4823818  32.4749589   9.1642666   6.1764324  32.1532273
   8.5041189   6.8397528  33.3428478  19.1587162  91.9910336   6.4187223
  19.6307921  92.1007633   7.2441518  19.0358746  92.8825760   6.0927057
 103.8860798  10.0960588  91.8402672 104.7174740   9.8899937  92.2675228
 103.9402962   9.6620274  90.9888458  57.3627234  99.4449997  37.3889947
  58.2065582  99.2003441  37.0090985  56.7168665  99.1542625  36.7451215
  69.5782423 102.5157452  83.4142971  69.4801426 101.9229794  82.6691532
  68.6871624 102.8070354  83.6075687  80.1736832  38.5226369  28.8996601
  80.3317451  38.0935311  29.7405601  80.3247166  37.8371739  28.2488441
   1.5836942  14.7650445  56.9980574   1.3746494  15.3545582  56.2734842
   1.8641263  13.9541256  56.5737915   6.9930714   8.0171460  50.9426880
   6.5812457   7.6898086  51.7423630   7.4725652   8.7970239  51.2221670
  85.4394245   4.7069225  73.0913401  84.7391129   4.2346922  73.5416651
  85.0099754   5.1094401  72.3364925  17.5485158  52.2265291  31.2500930
  17.5549018  53.1464863  31.5144277  17.8547263  51.7529631  32.0235252
  99.6514320   7.9502034  59.3216324  99.3750095   8.3514953  60.1455212
  98.9448261   8.1516850  58.7081623 103.1417561  45.7304621  90.5605221
 102.2653580  45.5035543  90.8714581 103.0818367  45.6661224  89.6073723
 100.1666355  26.8703222  53.3863592 100.4426289  27.0546651  54.2841768
 100.6138897  26.0545969  53.1610012  61.7209005  95.2617645  35.8475542
  61.0117054  94.7729969  35.4299712  61.3082743  95.6875134  36.5990257
  65.9079313   0.7211965  65.3125572  66.0059214   1.1271131  66.1738682
  65.3757572  -0.0578613  65.4740763  83.5748577  29.1334748  47.6101828
  83.3891869  28.2057405  47.7553320  82.7238560  29.5180368  47.4000931
  51.5032196 102.6507950  68.2705164  52.3490858 102.4315739  67.8797626
  51.6546965 103.4832382  68.7181044  77.7127934  97.0044708  72.6024199
  77.1957016  97.3853683  71.8926573  78.6220407  97.1524048  72.3423910
  76.3493061   6.6128820  14.4093060  77.2979879   6.4854842  14.4113255
  76.2267447   7.4941790  14.0564239  88.5686779  17.5963724  80.9066105
  88.3993530  17.5591004  79.9652433  87.9042816  18.1961095  81.2459087
 110.4973698  11.0401738  64.1876841 110.0143051  10.3263879  63.7712860
 110.9013081  11.5126312  63.4597731  74.6676397   9.2274928  91.3605022
  74.7938013  10.1524127  91.5722466  74.5065975   8.8080871  92.2057152
  80.9386730  22.4217081  48.5479116  81.8825817  22.4627829  48.3943510
  80.7233810  21.4923787  48.4689713  94.7848129  26.6883779  67.4136639
  94.1407585  26.4879155  68.0928087  95.6249905  26.4410067  67.7998447
  63.0102777  84.3882370  59.0277624  63.7200785  83.7759113  59.2213249
  63.2764006  84.8134232  58.2125139   2.5435293  45.3526974  66.7201948
   2.1423773  44.7891045  67.3817587   2.7097946  46.1772966  67.1769524
 113.4680464  24.6196866  67.9073858 114.3521378  24.3154192  67.7023602
 112.9614289  24.4338536  67.1167946  85.0354099  42.0769787  74.4855070
  85.2363205  42.9412746  74.8444843  85.8119297  41.5513563  74.6777916
  84.4859314  -0.1309747  57.5213909  84.5102406   0.6942917  57.0370579
  83.5534096  -0.3188758  57.6277828  84.1228294  28.6440396  82.9063702
  83.2746220  29.0319872  83.1214523  84.6808147  28.8585877  83.6539364
  86.1718941   9.0642345  80.6886673  86.3814354   9.8662066  81.1673832
  86.5419006   8.3621979  81.2239075  92.4666691  44.8019218  61.6334391
  93.3882713  45.0131416  61.4842272  92.3722744  44.8012686  62.5859737
  68.1815624 105.3973198  48.1325436  68.6388111 105.4940510  47.2972012
  68.8755131 105.4323196  48.7909031  29.4208312 102.0219326  64.7447014
  28.5387444 102.0581150  64.3747759  29.4910479 102.8159237  65.2746820
  56.3924074  97.2355843  40.9881973  57.3461390  97.2423363  40.9070587
  56.2121725  96.5569019  41.6386843 112.1291161   5.4581970  53.1550694
 112.0649242   6.4111364  53.0916786 111.2327290   5.1485920  53.0251980
  80.7628918 105.0099659  73.2326651  80.4874992 105.8297062  73.6430693
  81.5568924 105.2389050  72.7495623  83.2872963  11.0809278  40.6715488
  83.2736588  10.9275746  41.6162872  82.7583790  11.8692875  40.5492067
  57.0176792 104.9351501  56.2279081  56.9931126 104.0494251  56.5900135
  57.3709202 105.4736805  56.9360256  78.1529379  45.5496502  79.5904207
  77.9209471  45.7364130  80.5001068  78.7047958  46.2863684  79.3278790
   4.7550339  15.9793758  73.7426996   5.3797281  16.2048817  73.0533981
   3.9213663  15.8722281  73.2847118   3.5741788   1.4260691  48.4024048
   3.4674862   1.6830404  49.3182755   2.6942948   1.4914429  48.0312443
  11.8296599  56.2179136   8.1342244  12.0226872  55.9121275   7.2479582
  11.4686000  57.0958471   8.0113578  91.4396381  38.6565518  75.9635639
  91.7976665  38.2441425  76.7496681  91.8124199  38.1545830  75.2387953
   7.4499023 102.5169849   1.6872250   8.3435410 102.1933746   1.5735783
   6.9571078 101.7564106   1.9953060  33.4820724  37.0592809   4.7194988
  32.9132080  36.3673043   4.3821678  33.1182194  37.8667331   4.3563694
  59.5342541  16.0172999   2.2791532  59.3566322  16.1289811   3.2130748
  58.8425827  15.4311180   1.9722190  87.5849438  28.1254959  54.9497128
  86.8353081  27.7981138  55.4468060  87.6480484  29.0493441  55.1921129
  86.0850048  20.7456613  89.4384766  86.5715218  21.2082481  88.7561607
  86.4784527  21.0451508  90.2580738  86.1609364  28.1526065  70.0206518
  86.1782360  28.0936027  69.0654278  85.9662247  29.0724111  70.2003145
  87.5868130  35.9895611  74.5641136  86.7736053  36.4054513  74.2778063
  87.6416397  36.1889148  75.4987144  30.5668879  92.3869228  67.5927639
  29.9722266  92.5601578  68.3225584  31.2296891  91.8007088  67.9578447
 109.8726559  31.0736990  61.1395073 110.1866627  31.0002637  62.0407438
 108.9844036  31.4205313  61.2228680  77.7717113  15.1051772  83.1733131
  77.2384930  14.6672130  82.5099087  78.1212521  15.8771884  82.7282810
 102.8724194  70.2749443  46.6403008 102.3507214  69.4827271  46.5120029
 102.7413368  70.7805586  45.8381796   3.2237601  20.4275131  73.9120197
   2.8025812  20.9704471  74.5784044   3.6309218  19.7154868  74.4054461
  85.0085926  98.9129829  22.5932956  84.6741962  99.1301060  23.4635043
  84.8845196  97.9668236  22.5182366  43.2551670  66.1890841  23.5715413
  42.5963736  66.7160892  23.1193447  42.7673626  65.4423761  23.9189672
  77.9612112   3.8415912  71.1216354  78.6239195   3.1576368  71.2178421
  77.4342966   3.5609928  70.3734016  50.0222778 104.6734905  53.4568262
  50.2882814 103.7931919  53.7224531  49.9262047 105.1531601  54.2795801
  98.1398392  22.9276943  75.5103779  97.7724266  22.1049809  75.1873016
  99.0840435  22.7732277  75.5395603 107.9470062  68.1418228  70.3977537
 108.3209515  68.7283945  69.7402382 108.7003326  67.8391027  70.9048033
  90.6792259  16.5987682  82.7239609  89.9860382  17.0042109  82.2030640
  91.3250351  16.3093972  82.0794296  69.6383142   8.8721347  73.3844662
  70.4146433   9.1404450  72.8929806  69.9588680   8.7180305  74.2731333
  39.6990728 104.0795803  83.7619209  39.9463773 103.2538700  84.1781807
  39.2722869 104.5800018  84.4573784  21.9954729  63.7612343   3.0963764
  21.7102480  64.6473932   3.3191025  21.3023424  63.4217215   2.5302219
  89.6505642  96.7077446  45.3078413  90.5302906  96.4864922  45.0022840
  89.4425678  97.5299168  44.8639917  75.7257462  23.7645960  67.4905920
  75.0074434  24.2761159  67.1182775  76.4987898  24.0456223  67.0010424
  44.5453119  62.4577808   5.2156663  43.9796400  62.4500990   4.4435355
  44.5729971  63.3764267   5.4831678 104.4772148  12.1042013  50.3901148
 103.6891365  11.6180038  50.1476812 105.0565529  11.4456069  50.7733250
 103.4728146  25.3998709  61.6879129 103.6979389  25.3266883  62.6153755
 102.8782558  26.1487508  61.6441345  42.4939537  81.1089993  78.8359356
  41.8949938  81.5833092  78.2593012  43.1774855  81.7450619  79.0467215
  22.2337222  32.1854949  61.5377665  22.5044250  32.3079967  60.6278515
  21.3650942  32.5848413  61.5850687  14.5286858  22.7746248  82.8943634
  14.7382367  23.5162807  82.3266792  14.5914769  22.0098186  82.3222065
  23.8932371  61.5493584   5.3390002  24.2147112  60.7934189   5.8303666
  22.9786563  61.6380119   5.6071717   1.0141555  33.1117082  63.9113140
   0.5573795  33.7213898  63.3317661   1.6500399  32.6740623  63.3453178
  97.8608704   0.4869243  56.1112165  97.7590752   1.4349458  56.1956310
  97.7667809   0.1554728  57.0042562   9.6826160  17.1537220  50.1377869
   8.8489425  17.5998998  49.9889708  10.3445113  17.7762198  49.8367500
  87.0802021  51.2893534  74.0592623  87.2717762  51.3591766  74.9944925
  87.9317856  51.3841867  73.6326027 105.2277565  28.0772376  46.1828089
 104.5199776  27.4651933  45.9811068 105.6589699  27.7003813  46.9497919
  65.8558989  62.6586199  81.5212154  66.0323715  63.0850935  80.6826401
  65.4992723  61.8025446  81.2841892  17.9490459  94.5607185  90.5191135
  18.1047451  93.6235714  90.4018593  17.0614338  94.6135426  90.8734894
  84.6894073  30.6693339  86.9385147  84.1175365  30.4161596  87.6631451
  84.1482735  30.5593491  86.1566544 105.3312111  18.0381334  77.3282862
 104.5576668  17.5570846  77.0342779 105.7372475  18.3549309  76.5214348
  97.1455479  26.9705915  65.4744434  96.6090584  27.6711059  65.1033831
  97.1599007  26.2951303  64.7963762  70.0494576  88.4013081  61.8515015
  70.9333372  88.5875797  62.1681881  69.9129438  89.0273190  61.1403704
   2.3932500  27.6694822  54.2274618   1.6138022  28.1409407  54.5214319
   2.3784018  26.8501759  54.7221804  97.1807766  14.0106189  59.3711996
  96.5258312  14.5650744  58.9471006  98.0089951  14.4704151  59.2338610
 101.2283421  16.2551093  81.2907028 102.0061493  15.7014871  81.2217522
 101.5533829  17.1438289  81.1466312 102.9956150  45.7865715  70.8183908
 103.7546635  46.0068560  70.2784395 102.5582600  46.6244125  70.9699821
  47.9351282 106.1867523  73.8501549  47.5802755 107.0660400  73.7191486
  47.4415922 105.8374023  74.5921803  16.7244554  76.2768126   1.2492439
  15.9936035  76.8747520   1.4059411  16.3425207  75.4035234   1.3371456
  11.8794906  29.9393749  58.7325382  11.8579388  29.0823603  59.1583252
  12.0039511  30.5603433  59.4502735 112.4326420  16.0030675  58.4940290
 112.1636009  15.5429161  57.6989746 113.3871651  15.9318280  58.5006094
  97.9270077  19.0808010  60.7042837  97.9072857  20.0363541  60.7568264
  97.0215034  18.8135219  60.8619499 103.1365681  20.4384875  43.7441587
 103.4787750  21.3321471  43.7665606 103.0248165  20.2480888  42.8127670
  16.3683426  36.2397766  89.2596340  16.7566609  36.2262440  90.1344299
  16.3527608  37.1660566  89.0188122  98.0675316  45.4284954  64.6428823
  98.6550903  46.0750389  64.2517376  97.3919964  45.9500360  65.0763416
   9.8895639   8.7382817  79.5633507  10.7470536   9.1141522  79.7625113
   9.4368309   8.7144804  80.4063797  83.9212990  27.3236680  41.4925575
  83.7237358  27.9356742  42.2015333  83.2537842  27.5012398  40.8298922
  72.0068836  12.3635340  67.4554253  72.7615976  11.7946982  67.6073027
  71.3213110  11.7734027  67.1424246  95.2495956  21.2939477  67.3707104
  95.1237774  20.3525162  67.2519159  94.6562481  21.5266514  68.0848694
  98.5209656   5.1453829  28.5381413  98.5601330   5.9333366  27.9960847
  98.1946278   5.4525101  29.3839598  74.0792942  16.5693891  78.3623886
  74.4030714  17.2760260  78.9210176  74.8428059  16.2978697  77.8529215
   2.0404042  12.7427173  47.4429798   1.2452142  12.7827370  46.9116592
   2.6864496  13.2439232  46.9453335  35.7875085  82.1407890  88.3963680
  35.6850958  82.7209187  87.6419163  35.6813526  82.7140999  89.1555023
  59.9715233  10.8739960  59.9356079  59.6383953  11.2025523  60.7706594
  60.6266928  10.2202201  60.1796627  75.2928209  21.2155128  60.9602642
  74.4219494  20.8191657  60.9871769  75.6886148  20.8699632  60.1601553
  89.6472073   6.7478967  62.4758196  90.3893948   6.3760674  61.9992352
  89.5589066   7.6349878  62.1272421  14.8359656  59.8065376  77.1498299
  14.7340167  60.6308365  76.6740417  14.7396326  59.1297579  76.4798164
  96.9272709  53.8726091  66.9261837  96.1908340  53.6751461  66.3474798
  97.0536900  53.0716276  67.4347878  97.6333046  43.6379910  62.5867367
  98.0427742  44.1208458  63.3046579  97.4567604  44.3027258  61.9210100
  85.6877518  39.9913287  68.5695601  85.0514126  40.1265574  67.8674030
  85.4928589  40.6798744  69.2052937  13.6938000   8.4789407  59.2289257
  13.7146056   7.8593421  59.9582386  14.4558108   9.0407515  59.3701267
  23.6513543  38.3503318  58.4019089  23.5627103  39.3015337  58.4618521
  24.5542431  38.1766748  58.6681128  94.6977425  16.9525194  49.1411734
  95.6291962  16.8368495  49.3289375  94.6600342  17.7326274  48.5877800
 112.8242397  38.2471275  31.5495253 111.9826508  37.7917767  31.5244961
 112.5942421  39.1695356  31.6613245 100.5662060  19.4503939  61.8762064
  99.6821308  19.2263663  61.5855694 101.0880947  19.4551933  61.0738134
  15.1119360  56.1437671  -0.2803126  14.3214449  55.6386367  -0.0900832
  15.5980811  56.1473729   0.5442438 104.9286938  22.9034662  50.3647566
 104.6358490  22.1806526  49.8097706 105.7997608  23.1220412  50.0335503
  74.5905447   8.9937532  66.4402628  74.4445992   8.1933004  66.9444513
  75.0556850   8.7015897  65.6563520  20.4367423  33.3646011  71.9633961
  20.3239775  34.2624664  71.6513729  21.2574267  33.0740690  71.5655279
  38.9728403 105.8657646  85.9449005  38.3530140 105.5820751  86.6168880
  38.4536481 106.4134026  85.3560448  67.6142406   4.9419811  71.8222809
  67.3027277   5.6440091  72.3935461  67.7666712   5.3690237  70.9792900
  90.8728790  24.3289804  19.7476113  90.3369141  25.1004863  19.9313116
  91.3542843  24.1727948  20.5600739  85.9643841  42.0957136  78.7173414
  85.8782673  43.0473375  78.6604834  85.1145554  41.7607975  78.4312439
  91.3429642  21.3342857  81.0527134  92.1787643  21.7928171  80.9665394
  91.4894390  20.6990194  81.7535877  87.8686047   1.6350396  75.8464289
  87.1522331   1.1538621  76.2605762  87.7960587   2.5222895  76.1982203
  85.8867931  16.3361692  72.5463820  84.9805355  16.2276614  72.2580242
  86.2481689  16.9979167  71.9566917  25.3884101  72.5883341   0.0993473
  24.9262428  72.7490950   0.9220198  25.3551698  71.6382551  -0.0123478
  95.0969791   9.5666987  75.5388021  95.0205898   8.6351043  75.3325748
  94.1923332   9.8701471  75.6147861  76.1097097  10.3822517  80.2437115
  75.9743595   9.4722033  79.9796581  76.9134331  10.6448221  79.7950220
  95.8485031  42.6305771  36.3115716  95.9496880  43.5571194  36.5295482
  95.7844543  42.1906996  37.1592975  69.1697884  19.1297829  65.8008575
  68.2868767  18.9119005  65.5021524  69.1829014  18.8670874  66.7212105
 107.0805931  50.7617712  80.6206703 107.7256775  50.1861429  81.0314751
 106.6710091  51.2232733  81.3524437   9.1979223  77.9116488   2.6399219
   9.8245001  78.2497692   3.2796943   8.4222442  77.6934338   3.1565818
 112.9935265  48.2976913  57.3162937 112.1952248  47.9668713  57.7280045
 113.5451221  47.5231361  57.2066212 104.6051788  67.7692461  74.8971415
 105.2381420  67.9579401  74.2043352 105.0305748  68.0723286  75.6992674
  82.1167564  19.7643352  70.6462765  82.3579502  20.4113793  71.3091469
  82.5642967  20.0566530  69.8522377  12.3136199  32.7956748  70.4474783
  12.9510677  32.0955443  70.5878639  11.6412795  32.3997974  69.8929739
  77.2419882  42.1528912  54.7007799  78.1327772  42.0493889  54.3660927
  76.6800117  41.9456863  53.9541340  81.2287426  32.8859949  90.7025242
  80.4015160  32.4671745  90.9402561  81.0646915  33.8221169  90.8165169
  15.0302064  25.0282669  65.0256252  14.8393857  25.0584817  65.9631252
  14.1840804  24.8512650  64.6145630  83.7796593  17.5277531  49.1425991
  84.1680145  17.4590325  48.2704258  84.0471935  16.7238081  49.5879364
 109.9853134  67.4761629  62.0312595 109.2159653  67.9990721  61.8056440
 109.7826576  66.5991211  61.7057514  91.5756702  53.8624382  60.8006144
  90.6328487  54.0210104  60.7539082  91.6629505  52.9124594  60.7221603
  87.3262119   0.9552263  45.6578302  87.0328331   0.9654249  44.7467518
  87.1178246   0.0735189  45.9666967  87.9354572  35.2363420  65.6276512
  87.2501945  35.4129553  66.2722063  88.6863804  35.7469034  65.9304142
  31.6616130  14.2199206  69.0284014  31.0373163  14.8198342  68.6202478
  31.1220074  13.6466026  69.5727921  46.7408389  14.5719164  -0.0728884
  46.0628051  13.9852064   0.2621850  47.4580878  14.4929569   0.5560407
  95.0989342  27.5987601  88.3014297  95.6983757  26.9155526  88.0012035
  95.0411797  27.4677587  89.2478561  36.8850636  40.7441425  54.1161585
  36.9503236  41.1766338  54.9675846  37.3296833  41.3379192  53.5112000
  75.9050512  34.8998404  75.1743174  76.7570448  34.7713161  74.7574091
  75.2923727  34.4144893  74.6217823  16.2764776  28.8338757  70.7330084
  16.9591224  28.6070943  70.1015043  16.6642797  29.5279717  71.2659931
 107.2230339  67.4921370  76.4562988 107.6453972  66.8542194  77.0315361
 107.4192905  68.3402920  76.8542290   7.3593956  64.2454004  87.7678871
   7.7289021  63.5368872  88.2948685   7.2033823  63.8497877  86.9103432
  79.4604349  71.6159439  57.5376844  79.0075111  72.3518229  57.9494762
  78.8103533  70.9135580  57.5211048  83.2843685  55.3237820  52.5499201
  82.5512409  54.7402906  52.3542500  83.7548542  54.8873854  53.2601547
 108.2673168  44.7786283  74.2681503 107.6486683  44.4081163  74.8976183
 108.7084579  44.0180492  73.8898039 100.5686951  68.5575342  75.8637333
 100.7178402  68.4260082  76.8000507 100.9345055  69.4232559  75.6822205
  72.7587652 106.6553307  67.8595161  73.5638428 106.3633251  68.2870913
  72.1730328 105.8999729  67.9103374   2.8084174  63.9743614  79.0898609
   1.9528839  63.5462379  79.0581465   2.6165113  64.9030161  78.9594746
  99.2229748   6.6623276  89.9695110  99.9179649   7.2927952  89.7804737
  99.0506172   6.7691880  90.9049797  82.7673244  27.2121167  33.1059885
  83.2631397  26.6932225  32.4726272  83.4334946  27.5883603  33.6812186
  47.0864296  22.0930028  41.1650276  46.8719053  23.0230308  41.0924959
  46.4064026  21.6500497  40.6575012 102.6545238  43.4729624  73.1113863
 102.5920200  44.2540073  72.5615740 101.8637943  42.9732180  72.9083252
  96.9916344  17.3202443  68.0452728  97.7935982  17.1452057  67.5528860
  97.2784138  17.8485656  68.7901640  62.6994276  85.9852695  77.9481554
  63.2439709  86.6259289  78.4055996  61.9615841  85.8329773  78.5385990
 100.1877403  19.3986464  64.5042229 100.3011227  19.5275581  63.5625458
 100.7135773  20.0904250  64.9056959  59.1092157   2.6403347   8.3314741
  59.8306084   2.6331219   7.7023673  59.5325279   2.5278977   9.1825902
  86.9132519  24.8777652  65.0797224  87.3370647  24.9288607  64.2229795
  85.9818077  24.9960923  64.8936129 108.4219074  34.8968339  88.5797215
 108.3024406  35.8148932  88.3365631 108.9390564  34.9275970  89.3846130
 100.8743191  23.6794376  56.0220385 101.3753319  24.4948506  56.0041761
 100.1553726  23.8265514  55.4074621  75.2824259  75.5876493  56.2666655
  75.8262300  76.2366199  56.7131472  74.5825863  76.0996675  55.8613348
   7.4451607  12.0241427  78.9607477   7.6945204  12.1461844  79.8768044
   7.6794761  12.8496861  78.5367155  91.6493320  32.1587348  62.6466274
  90.8037853  31.7951202  62.9094410  91.5183163  33.1067586  62.6644135
  62.3147774  16.1855102   5.6315082  62.1944809  16.9985747   5.1409107
  63.2640171  16.0703111   5.6751436  19.1708231  58.9229870   2.7100182
  19.9629807  59.2483711   2.2824168  18.5114050  59.5945263   2.5355744
   9.9241143   5.1045674  83.1027699   9.2324901   5.6701303  83.4463215
  10.5907905   5.7107127  82.7797222   7.0940685  55.6900501  77.0912409
   6.5519863  54.9203682  76.9181299   7.9785806  55.3405857  77.1996117
   0.6530539  39.0337443  59.2550182   0.6224418  38.7235117  58.3500004
   0.5483757  38.2423353  59.7831678  25.4227185  73.9013243  13.2743931
  24.8862171  74.0733051  12.5005567  24.8592639  73.3788872  13.8451910
  35.1460028 103.5313797  26.6185284  35.3630829 102.7446270  27.1186566
  34.1976476 103.4842205  26.4975739  98.4509563   2.0830804  44.8340702
  99.1284657   1.8918830  45.4826450  97.6709557   1.6369162  45.1638651
 103.1481457  34.0243697  50.3048849 102.5433636  34.1253233  51.0399246
 102.8862095  34.7042370  49.6840811   9.4391310  43.1399775  79.0790844
   9.6713382  42.6052809  78.3198690   8.5219043  42.9267311  79.2507029
  94.8733139  46.6682911  61.8859053  95.8067322  46.6771364  62.0977545
  94.5834923  47.5669098  62.0431614   1.1975035  15.9175551  59.4970465
   1.9564313  16.0233915  60.0706816   1.5611927  15.5800009  58.6784983
  10.7237577  33.3290529  42.8059912  11.2029612  33.9546394  42.2626352
  10.1222479  33.8688231  43.3188915 110.2870274  21.6295266  41.9829035
 111.1583996  21.5844035  42.3764753 109.8590946  20.8176041  42.2547388
  25.9710693  23.0925107  36.5324759  26.3453913  22.5909805  37.2567558
  26.6504049  23.0829191  35.8582044  95.6217098  50.9686422  84.0761948
  95.7994652  51.7912960  83.6202621  95.3569603  50.3633070  83.3835793
  25.6301522  23.6551738  61.9493914  25.3363347  23.1778717  61.1734486
  24.8561502  24.1363931  62.2419262   8.8169116  33.9476323  89.1669464
   8.9952129  33.2569814  88.5286331   9.6154428  34.4753194  89.1782093
 110.3811932  34.0594101  60.9028244 111.0443115  33.8390231  61.5569925
 110.1964855  33.2308936  60.4604673 109.6091080  14.8445630  87.9039669
 108.9635277  14.1378546  87.8987026 109.0996265  15.6356823  87.7284813
  98.2324791  15.6319213  72.3471785  98.9975643  15.5122566  71.7845535
  98.1361675  14.7950387  72.8016949 100.9689999  35.2782297  62.8073740
 101.2152958  35.9967589  63.3898592 101.5699196  35.3540516  62.0661640
  84.3529701  38.3801603  64.7802114  83.7454605  38.4057975  65.5194759
  84.0284920  39.0516472  64.1801643   8.3334947  30.9345293  67.7962112
   8.2890427  30.2171183  68.4283304   7.5263220  30.8560848  67.2877312
  84.5445442  37.0372415  62.2437859  84.3406487  37.4275160  63.0936909
  84.9260998  36.1855745  62.4566555  73.9450598   3.4517989  86.8768215
  74.7600937   3.9509958  86.9292545  73.2712364   4.1103989  86.7081738
  98.0291462   2.7591327   2.2824042  98.0951309   2.0717162   2.9452282
  97.9475784   2.2862279   1.4541894  91.7688560  38.0664563  60.9466887
  92.3294449  37.3177433  61.1501694  92.1608639  38.4534144  60.1638556
  96.2755585  25.0259542  63.7032270  95.6589127  25.1164246  62.9767323
  95.7270908  24.8102522  64.4574738  20.1988792  41.2922907  83.9242172
  20.5124259  40.4088640  84.1178226  20.6522965  41.5358686  83.1171799
 100.0110149  70.7285833  72.0378494 100.2422047  69.9540901  72.5506306
 100.4190922  70.5814838  71.1845875  50.5237150  89.9484921  75.1572132
  49.7790146  89.4780827  75.5318737  50.7090902  89.4897556  74.3378019
  98.9233017  27.8258133  71.8569994  98.9878559  28.0851722  70.9378719
  99.8315144  27.7658010  72.1532869   5.4777974  43.4412861  86.4186382
   5.4615325  43.0615234  87.2971249   5.9114373  44.2871475  86.5313435
 102.1854210  34.8098874  54.5986509 101.5034866  34.4217777  54.0504122
 102.5759697  34.0661621  55.0575352  95.6778812  55.8554745  80.9103775
  95.9407139  56.6500950  81.3748550  94.7989655  55.6657934  81.2386513
  98.5662842  48.3963966  53.3668184  98.6744022  49.1554070  52.7937126
  98.7491512  47.6436901  52.8044796  10.7963705  52.8082323  39.7268701
  10.9725273  52.5439882  40.6298542  10.1834369  53.5391331  39.8064375
  12.8603923  41.7615461  45.6068993  12.8492212  41.5370941  46.5373468
  13.7835300  41.9204378  45.4099178  54.8871088  92.8001308  83.3281803
  55.7297993  93.2366943  83.4527397  54.8443985  92.1558094  84.0347767
  21.9180179  31.1966610  64.2914057  22.0399809  31.4362478  63.3727360
  21.4353418  31.9321299  64.6686935  93.6557293  21.6816044  69.5277166
  93.1678104  22.1366215  70.2140999  93.8987350  20.8438349  69.9218225
 113.1834698  26.4683700  27.4473238 113.3506775  27.2598886  26.9356918
 113.9534378  26.3790822  28.0089283 106.3134509  53.8422552  92.5169435
 106.6865092  53.5478274  93.3478300 106.9800836  54.4208614  92.1467426
  72.7093887  12.6445460  77.1692610  72.1841431  12.6081777  77.9686499
  72.5248766  13.5083902  76.8005323   3.2865310  97.5119209   5.9107828
   3.0853286  96.6009235   5.6966782   3.7348872  97.8470421   5.1343161
 109.2246723  41.4842606  69.0690565 108.4805870  41.7797518  69.5936918
 108.8335419  40.9480476  68.3793306  87.2726440  37.4160361  46.8865776
  87.0121384  38.0612016  46.2292051  86.7139435  37.6036286  47.6408339
   5.4279959  86.8470192  43.9959955   4.8349065  86.3045311  43.4762096
   4.8602551  87.2785282  44.6345139   5.8084601  25.2468896  65.7858419
   6.3362765  24.9197340  65.0574112   5.6264526  26.1588621  65.5591011
  83.0619335  28.8278437  71.0960817  83.1459045  29.2244124  71.9632101
  82.5235081  29.4455457  70.6013346   9.8500603  36.0626101  46.8565321
  10.0454855  36.7733788  46.2459183  10.6507134  35.9622574  47.3714256
 113.2580566  67.7516365  84.1858864 113.2776928  67.2823191  83.3518696
 112.4160862  67.5143433  84.5744801 102.4826431  20.3694749  19.6025229
 101.6831112  20.3994536  20.1279545 103.0268860  19.7094953  20.0320077
  80.8174706  31.5328479   6.5330654  80.0999069  31.9682217   6.0728741
  80.6270790  31.6728950   7.4606258  90.1183414  23.5583520  84.4382763
  89.2530537  23.7689710  84.0873718  90.4112816  24.3684912  84.8555279
 105.8746624  64.6213675  45.3829527 105.1573086  64.4595909  44.7702026
 105.9486961  65.5750322  45.4186440  98.0460644  25.3881097  67.8349400
  97.7728271  25.8571529  67.0465422  97.2500134  24.9561000  68.1446123
  87.2916889  64.0090513  63.6415768  86.5103626  64.5610332  63.6744738
  87.8714848  64.4513607  63.0215502   4.0432149  13.6299193  45.8756065
   4.5930624  12.9847074  45.4310846   4.6596691  14.1695869  46.3705587
  35.6247497  19.1476095  49.0254498  35.1620865  18.4497201  49.4892645
  35.7597303  19.8262215  49.6868849   4.5702088  47.4697971  60.2570009
   4.9281269  46.8045425  60.8448505   3.7609756  47.0833063  59.9223375
   5.8155447  27.7604437  65.1061630   5.9825265  27.5342894  64.1911745
   6.0022420  28.6977649  65.1591206  86.4464474  33.4376168  57.1930647
  85.5497932  33.4565687  57.5275564  86.8229198  34.2731237  57.4695253
  90.4168701  53.3456612  84.9116611  91.2335587  53.2932997  85.4081535
  90.6956482  53.4133768  83.9984608  93.8448143  17.5044489  64.4924498
  94.1045094  16.6967022  64.0493536  94.2942715  18.1978250  64.0092897
   2.7630249  30.9668207  85.2576447   3.6299127  30.9605193  84.8518181
   2.7953374  31.6930962  85.8803082  63.7026072  98.0130863  26.0452151
  64.1169977  97.2187042  25.7083678  64.4325447  98.5568714  26.3413930
 110.9621048  56.0859251  76.8531942 110.5533314  55.3287077  77.2724342
 111.8533707  55.7981300  76.6555548  81.8512440  16.0514295  46.8422699
  81.9223881  15.4687250  47.5983286  82.7396297  16.3826275  46.7106962
 101.5210247  42.9668474  54.0558386 100.8365250  42.3237371  53.8711834
 101.8363762  42.7367449  54.9298191   6.2452745  63.8522673  47.9240131
   7.0031506  63.8120937  48.5073185   5.4942745  63.9314890  48.5121918
  58.5532141  25.9727621  56.5588236  59.2094469  25.3009868  56.7440701
  58.9625692  26.5318084  55.8984232  26.4984083  72.1198702  48.9129019
  26.3786149  71.7361975  49.7816229  26.7330599  73.0319214  49.0841627
   4.4184998  49.2132092  45.7474518   4.3105865  48.3189440  46.0713053
   4.8313498  49.6823311  46.4725065   6.7778659  92.1601772  57.3251438
   7.6214921  91.7079449  57.3278904   6.6829908  92.4955559  58.2166338
  99.5809555  61.7254210  61.0435963 100.0598240  62.3368216  60.4840422
  99.6426582  60.8855963  60.5884886  84.6523380  40.6598091  62.6847029
  84.1759300  41.3022137  62.1587992  85.0290203  40.0572634  62.0433855
  23.2254219  43.1824207  70.9484863  23.1496501  42.2579575  71.1848354
  23.3399057  43.6347103  71.7842865  37.6751161  83.5330296  15.3324854
  37.2068787  84.1837597  15.8554983  37.6524711  83.8809204  14.4410300
  90.9739590  66.9826555  88.8436317  90.3095436  67.0407248  89.5302200
  90.5910015  66.3992834  88.1884575 110.1545143   9.5907915  60.3564787
 109.5618248   9.0996665  60.9254694 109.9480915  10.5090117  60.5311012
 112.9358387  89.8764801  20.8485532 113.4031391  89.4109154  21.5421724
 112.6005173  89.1839886  20.2791238  11.1608446  80.3876686  12.1852052
  10.7056582  81.0917854  12.6470113  10.4758596  79.9517345  11.6782653
   1.9600798  15.8802223  51.3965893   1.1584718  16.3452744  51.1570406
   2.3111258  16.3740492  52.1376228   4.2100355  21.0347366  35.8091736
   3.3914718  21.1328197  36.2955523   4.1082111  21.6094875  35.0505400
  33.5582018  65.1705694   1.8465215  33.8814187  65.7272243   2.5549674
  34.2074561  65.2682066   1.1499808 112.3317528   7.6331347  75.1725340
 113.0701923   7.3410267  75.7069588 111.6153717   7.7490062  75.7967234
 110.7397747   6.5701848  43.2529545 110.2446747   7.2535014  42.8010798
 110.4654408   6.6405511  44.1672945  33.3075738  61.2383127  12.6529109
  34.0300012  61.6887999  12.2154260  32.6771402  61.9312525  12.8494346
  86.4931107  63.9400721  11.1169505  86.9322872  63.1122637  11.3121045
  85.5649090  63.7122059  11.0644424  43.5907221  87.1090698  80.7688236
  43.1596994  86.2651253  80.9037876  42.9540491  87.7548695  81.0751247
  22.4852538  46.9426203  59.8404551  22.7756476  46.4754438  60.6238127
  21.5579414  46.7198324  59.7586823  99.2075157  65.3652477  61.7885590
  98.9622784  65.6806087  62.6584101  98.4117985  64.9554777  61.4492178
  72.0467281  91.1099815  88.1794357  72.9744911  91.1634827  87.9500294
  71.8360567  90.1788712  88.1096554   5.0589979  29.6172833  50.7107210
   4.2684710  29.3241239  51.1638832   5.0159955  29.1916466  49.8544407
  96.1389008  37.6451449  92.5355633  96.2461439  37.9554514  93.4346984
  95.4531148  36.9797568  92.5920139  93.1454563  15.8155572  75.1288795
  93.0289459  16.6828227  74.7409248  93.3557320  15.9898436  76.0462904
  94.2044640  35.1382160  14.1443026  95.1404285  34.9592447  14.2347610
  94.1477299  36.0918045  14.0836167  98.0596828  39.8064947  67.9916573
  98.6000156  39.2955256  68.5943031  97.5339031  39.1538239  67.5292587
  27.7180457  16.0778558  56.1185551  28.6424899  16.2615657  55.9515619
  27.4855947  16.6583729  56.8432570  28.9198494   8.1328559   9.9092770
  29.3219995   8.8512850  10.3975046  29.1864157   7.3438585  10.3811431
  93.8506126  49.3267393  56.0626698  93.7443256  48.4105301  56.3185883
  94.7342205  49.3724489  55.6974602  83.2318687   9.7372472  61.5837097
  83.1771088  10.6693387  61.3729048  83.5542965   9.3285567  60.7804394
 100.3449917  45.6204844  47.7989912 100.0545502  45.7422447  46.8950844
 101.0747719  45.0043964  47.7351522   5.8166045   3.9433941  42.2127819
   4.9058741   4.1926992  42.3697805   5.9787172   4.1895264  41.3020849
   9.4681752  38.2250667  54.2072487   9.3880731  38.3599424  55.1515055
   8.5996348  38.4306502  53.8614082  94.6451473  23.2758331  47.7307224
  94.2722797  22.4485183  47.4261713  94.4029617  23.3216143  48.6556482
  98.9754105  57.1475506  73.9616489  98.8675976  56.6292763  73.1641531
  98.0877495  57.4238157  74.1895866 101.0159111  31.9962192  49.3724585
 101.4123058  31.8218350  50.2260923 101.2401581  32.9079080  49.1860008
 109.1821575  64.2576313  70.3935432 109.2944717  63.4951162  69.8259258
 109.5718479  63.9949465  71.2274313 107.3315984  79.2792255  92.8974988
 106.6739064  79.2787535  93.5929647 107.0837861  80.0122268  92.3339982
 102.7532291  43.2721186  87.2606277 103.0041313  42.3529148  87.3519421
 103.4273148  43.6493826  86.6953850   0.3732053  85.5715847  57.8707838
   0.3148861  85.2318573  56.9778013   1.2319984  85.2841663  58.1807804
  22.7518749  22.2266579  68.0730486  22.3229218  21.3815355  68.2072210
  23.5692000  22.1615052  68.5669756  83.3525467  12.6647329  61.8470955
  83.0845451  12.7972186  62.7564096  84.3090343  12.6470256  61.8794584
  32.7327633  87.2511673   6.3034731  33.3718538  87.9582977   6.3915980
  33.1637454  86.4891911   6.6906106 111.4201164  26.1313176  63.2674265
 111.1175442  26.1996555  64.1729689 111.1411858  25.2597141  62.9868269
  70.0678921  72.3248720  11.2696660  70.1425838  73.1202936  11.7968810
  69.3697309  71.8232298  11.6905653 109.2953682  74.4639444  34.3766069
 108.6527061  74.9290228  33.8409567 108.7786293  74.0597486  35.0736308
  12.6639831  27.0855737  61.6060495  12.8319037  27.9904604  61.8691397
  11.8133640  27.1173525  61.1682510  80.8474445  30.5476213  71.1845350
  79.9710369  30.2575636  71.4375305  80.9121704  30.3311372  70.2543879
 108.5120678  60.3396559  58.4765100 108.9216805  60.9805584  57.8953981
 107.5776768  60.3984690  58.2772589 107.5222301  40.6685781  72.5026226
 107.5852394  41.3212585  71.8052912 108.4292221  40.4193735  72.6800871
  20.9004498  28.1461191  58.3878517  20.3482008  28.9087343  58.5600948
  21.5658569  28.1720495  59.0754509 113.1708908  55.0261641  34.3534470
 113.8968372  55.1925182  34.9547505 112.4689198  55.5996275  34.6610069
  68.5376835 103.2199383  64.1091490  68.0673695 102.3862839  64.1020441
  68.6964083 103.4132671  63.1852150   3.5744998  35.6420016  37.3104453
   3.3768389  35.3807807  36.4110422   4.2354217  35.0141835  37.6024413
  18.5588217  17.1365345  57.8057051  18.6872458  16.2827611  58.2189989
  18.3139598  17.7170575  58.5263109  31.7436624  37.1017694  65.4451227
  31.6287637  37.9559803  65.8614826  31.5150237  37.2498870  64.5275116
 102.6545525  23.1934357  83.5848999 103.0824089  22.6051593  82.9627228
 102.1130371  23.7650061  83.0405617  80.6924152  99.9197388  49.5367146
  81.2587452 100.5577946  49.1026878  80.5328274 100.2920246  50.4039907
 110.0661087  43.4850740  79.7848845 109.2232418  43.0325603  79.8171663
 109.8442459  44.3890190  79.5615244  16.5758467  16.9098425  50.6223869
  16.6396689  17.8090513  50.3005457  17.4726248  16.5773928  50.5837154
  41.2391710 101.3361835  71.6525698  40.6424427 101.9498158  71.2240744
  40.6886530 100.8627796  72.2763109  14.5612609  41.7176962  89.2511463
  15.3847730  41.3100624  88.9830112  13.9091229  41.3582802  88.6496735
   8.6489385  44.3389320  40.2423859   8.5644889  44.7478342  41.1037207
   8.4912586  45.0511694  39.6226382  29.4114137   8.9001954  43.6452770
  28.8468266   8.8974905  42.8723192  29.4335318   7.9862541  43.9289188
  41.4630508  54.0410137   2.5841790  41.8357182  54.9222851   2.5574362
  42.0811749  53.5354900   3.1120014  88.6872387  14.1814744  22.1777558
  88.1241798  13.4192789  22.3128438  89.0136433  14.0826213  21.2833738
 105.9807587  26.9358063  75.4376793 105.3569508  26.3052630  75.0778103
 105.4415989  27.6800656  75.7052898  11.8964553  19.4623375  57.3464012
  12.0421445  18.5251951  57.2169018  10.9505618  19.5429945  57.4689245
 110.1275730  80.6833172  76.7615509 110.7789421  81.3843346  76.7385769
 110.6416988  79.8771143  76.7174673   3.0654660  61.7536354   4.7521383
   3.4652275  62.6039124   4.9350259   2.5977564  61.8814182   3.9268199
  77.8722811  42.1942616  74.2013597  77.0964861  42.4224806  74.7134972
  78.0778122  42.9899025  73.7104988 113.4291744  18.1254470  77.7489758
 113.9604282  18.6134529  78.3781433 114.0657902  17.7321780  77.1520758
   5.7771695  33.9392400  72.4193335   6.2107521  33.6563325  71.6142225
   5.5467278  33.1247258  72.8662014  89.4170094  22.0571089  68.1696367
  89.1609764  22.9700756  68.3006668  89.4595528  21.9543695  67.2189188
 108.6005783   9.3144709  63.8159227 108.1173325   9.2331320  64.6381712
 107.9437256   9.5953715  63.1788445 100.2297592  59.7179937  82.2919941
 100.8434772  59.3416500  81.6611671  99.3848228  59.3296337  82.0650959
  11.5079379   1.5621969  55.2740240  11.4293361   2.3743677  55.7744551
  12.4427676   1.3575278  55.2948952  15.4464221  46.7475319  46.4998484
  15.2668118  45.8902264  46.8858528  15.3135657  47.3661757  47.2180796
   6.1527276  29.6690178  77.7938366   5.5958879  29.1280842  78.3537912
   6.6953397  30.1670980  78.4051609 106.5424252  20.0207925  25.0105715
 107.1442795  20.6414175  25.4214621 105.9279537  20.5697703  24.5234561
  88.9294052  20.3664231  33.7125874  89.6298695  20.3835988  33.0604482
  89.1671276  21.0513926  34.3375158  99.2900944  45.9600210  72.2404289
 100.2241135  46.0802460  72.4118900  98.8568497  46.3064671  73.0204916
 109.0187168  45.8961773  78.8888741 108.4579945  46.5122223  79.3603659
 108.8641453  46.0907984  77.9645061  46.7302608  59.6775961  18.5225666
  47.0850325  60.3165865  19.1406739  46.6185522  58.8801765  19.0401363
 109.8399925  24.6463633  59.1921663 110.5012226  25.3207922  59.0367508
 110.3244209  23.8218546  59.1504049  25.8178425  91.8948174  53.7939358
  26.0189342  91.4287758  52.9823923  25.4279065  91.2300205  54.3615818
 102.1772194  41.5971518  60.9021902 102.5986862  40.8668375  61.3552189
 102.8305149  42.2966146  60.9159327   5.0869048  32.6946902  38.5031295
   4.9960187  31.7905045  38.2024288   5.9378201  32.9748464  38.1659532
 103.0401802  58.8890171  82.1028805 103.6251068  59.5143938  82.5306702
 103.6032009  58.4138489  81.4917755  95.8725643  37.3831487  69.4762278
  95.9877396  36.7035079  70.1403475  95.3884792  36.9509029  68.7726259
   5.1778567  61.5204906  21.5302825   5.9211385  61.7064762  20.9565449
   5.0011307  60.5889606  21.3989615 105.8210850  25.5894136  30.0640368
 106.2606239  25.4139304  29.2320275 106.5303040  25.6308174  30.7055330
  74.2041492  92.6072311   6.0203707  73.5450459  92.0558548   6.4420277
  74.9639463  92.0345783   5.9154838  30.7263470  55.7607937  55.2923203
  30.0585961  55.2597380  55.7605934  30.3881955  55.8349800  54.3999147
 110.8967686  58.0947971  31.9844079 111.7868328  58.3028221  31.7002559
 110.7478428  57.2025299  31.6715097   3.8663712  62.7232981  63.2949972
   4.1984090  62.4287462  64.1430664   4.4421411  62.3059320  62.6542759
 110.0623035   4.0227294  57.8080320 110.3455353   3.4509599  58.5215378
 110.8126163   4.0547517  57.2145319  10.6615925  48.6178637  60.6370449
  11.4800990  48.1624794  60.4398012  10.9353995  49.4885826  60.9253311
  69.3493319  48.9764738  85.8535004  69.2865753  48.8154507  84.9120331
  70.2722120  48.8294363  86.0606480  84.6347237   6.4677387  10.2305412
  84.3254471   7.0656598   9.5500481  85.2435970   5.8841085   9.7779065
 104.4094372  75.9733105  44.2722225 105.1999092  75.4424477  44.3700457
 104.0169907  75.9816837  45.1452351   5.8912373  25.6846023  76.9071054
   5.1073313  25.2960992  76.5187931   5.6012082  26.0070086  77.7604342
 113.2816124  52.0363283  42.9811954 113.1979465  52.1437168  42.0337248
 112.9264545  51.1647606  43.1557417  11.5045958  58.5223598  92.5371667
  11.3269358  58.6550442  93.4683278  12.2798949  57.9612828  92.5188350
   9.1268873  39.5561337  73.2105780   9.1110283  40.4966450  73.0333138
  10.0521958  39.3174982  73.1549931  33.0917573 101.4199543  13.3139622
  33.5921359 101.2042522  14.1009343  32.6510096 100.6033802  13.0790603
 112.4284935  47.2742033  49.8040247 112.3914623  48.0004883  49.1816330
 111.5141010  47.1087122  50.0336647  13.7599933  60.7036734  51.2530422
  13.0319142  60.4003048  50.7107306  14.4893932  60.1304483  51.0171986
  88.4742260  51.1194038  76.7323589  88.0401802  51.6679573  77.3857546
  88.8802433  50.4172659  77.2406673  85.5283260  61.2929440  74.4832897
  86.1662865  60.5908012  74.6106863  84.8608875  60.9097624  73.9141464
   4.8542851  95.8594322   3.4369624   4.2689785  96.6168022   3.4423065
   5.3166300  95.9081268   4.2736807   5.4037982  57.0418215  75.0755692
   4.4794905  56.8440962  75.2265358   5.8618045  56.6115665  75.7976103
  88.3288002 106.5124035  50.5678082  89.2745686 106.5713501  50.4326153
  88.0420017 107.4215794  50.6536722 107.7593327  54.6143675  68.5097837
 107.1612263  54.1296816  67.9409504 107.9926491  53.9915514  69.1981840
 113.6173820  25.0196552  70.6238699 113.8142300  24.7015595  69.7427940
 113.4129333  25.9470010  70.5035973  76.8269396  45.6744719  57.5364876
  77.5928211  46.2421703  57.4506330  76.0825348  46.2761593  57.5447989
  17.9946172  47.1257257  88.9845657  18.2866418  47.5381517  89.7974968
  17.2508562  46.5825272  89.2453098  83.8969326  70.4429197  73.2995367
  84.5065498  71.1808825  73.2956171  83.4528160  70.5036259  74.1452980
  96.9206619  64.7026825  69.6927404  96.9807625  65.4344559  70.3068495
  97.8256321  64.5365715  69.4287872 107.8206921  12.1744287  51.9876862
 108.0221844  11.8598342  51.1064005 107.2905064  11.4780354  52.3752022
 104.9515343  79.4164085  44.4037819 104.7045231  78.8113260  45.1031351
 105.8534241  79.1785431  44.1887093  21.6296387  32.2248769  56.9210529
  20.8991051  32.7736092  57.2064400  21.9863200  32.6789665  56.1576366
  13.7714207  54.8327351  82.1533966  13.2965267  55.6268072  81.9081306
  13.2695854  54.4692421  82.8829575   9.8504591  18.4959853  83.3720493
  10.2210701  17.7028859  83.7591839   8.9984286  18.5943472  83.7970257
  20.5542612  73.6991549  75.3631449  20.1880598  72.8348303  75.5504179
  21.4367628  73.5201645  75.0385141   1.7895171  36.1815572  79.4746256
   2.6336986  36.4976907  79.7965717   1.5801442  35.4387689  80.0408936
 110.2418709  84.9170685  81.2488461 109.5606613  84.6387577  81.8610001
 109.7830868  85.0339890  80.4169369 107.1117592  50.6091166  59.7846556
 107.9532719  50.1753283  59.6435070 107.3293400  51.3982725  60.2807665
   5.1979268  69.6732521  88.4801865   6.0750645  69.3048048  88.3747864
   4.6365765  68.9140844  88.6376095 105.6790829  61.1947441  85.1456165
 105.9938335  61.7466927  84.4297218 106.4618587  60.7442236  85.4626751
  20.9311438  46.5195036  74.3369341  20.4176474  46.9179106  73.6342096
  20.3250027  45.9128809  74.7621775 101.3581467  25.4368138  66.2690783
 101.9069672  25.7325125  66.9954348 101.0804081  24.5563316  66.5217447
 106.3947868  65.0549650  69.8975563 107.2764683  64.8909235  70.2321672
 105.9825039  65.6013966  70.5666304  14.1273141   9.8932803  86.7038918
  14.0839815   9.0592963  87.1716785  14.1706419   9.6475846  85.7797718
  82.5987339  52.6750278  69.0866137  83.3881092  52.1699715  68.8916111
  82.2696209  52.2992992  69.9031591  35.5185580  83.9809132  84.0405655
  35.4022574  84.9190140  83.8899612  36.0555983  83.9300537  84.8312855
   9.5913827  75.6236982  36.5691352   9.1246802  74.7919273  36.4880157
  10.1974952  75.4882050  37.2974920  21.1220360  11.8504083  87.9705715
  20.3953910  12.1081173  87.4032974  21.0062695  10.9084260  88.0950642
  93.9107609  21.0751486   9.5558906  93.3579922  20.3818941   9.1952401
  94.7229004  21.0202932   9.0522492  54.9555397 100.8210278  88.1800747
  55.6627607 100.1760387  88.1879711  54.7711754 100.9856415  89.1048145
  17.4052143  45.7805157  30.5794048  18.2012999  45.5396128  30.1056504
  17.4559975  45.2884626  31.3988757  22.2015619  86.5368843  90.2125263
  22.7603078  85.7865429  90.4150772  21.6604090  86.6503716  90.9938717
  16.8490791  85.1688480  30.9694481  16.1523104  85.0416756  30.3255749
  16.9393802  86.1191559  31.0401034  88.0941391   1.8472770   1.4642973
  87.2807789   1.3559586   1.5795143  88.6049080   1.6526169   2.2500840
 111.6049004  21.0002232  79.5518160 111.1804199  21.0508966  80.4082584
 111.1118698  20.3293753  79.0794611  14.3593335  84.6266651  55.1838064
  14.5444131  85.1858425  54.4292879  14.9227977  84.9674988  55.8784771
   3.7734738  51.2956858  22.9249120   3.2969213  50.5171967  23.2131481
   3.1915459  51.7106724  22.2882199 111.4904976  84.0614510  66.5913057
 112.1963120  84.4717026  66.0915518 110.9807396  84.7959900  66.9331121
  99.8593903  45.8493567  85.7779789 100.0059128  46.5527058  85.1454639
  99.3018913  45.2236319  85.3154850  32.5459123  34.8809290  88.3404922
  33.0127454  35.6128693  87.9372978  32.9068089  34.1031456  87.9150009
  23.0006051  48.1493616  64.4092607  23.1395245  47.2094345  64.2931890
  22.5486445  48.2226753  65.2498484 100.1561546  80.0393200  52.3240423
  99.7548008  79.2072821  52.5747585 100.7646179  79.8097229  51.6216993
 106.1738586  70.3923559  69.4242620 105.3221226  70.4017353  69.8609400
 106.7181015  69.8275614  69.9729300   6.6500121  69.1168642  43.1801605
   6.0775650  68.9673376  43.9326096   6.1973494  68.6983347  42.4479294
  55.1585770  49.0507889  89.6876240  55.1937151  48.0961847  89.7486782
  54.2458344  49.2436457  89.4732952   0.2790645  28.8592935  55.1555729
   0.5869529  29.7643447  55.2037239  -0.6407214  28.9049935  55.4166031
  57.9185247 103.3341789   5.9194791  58.1892824 104.2522526   5.9114653
  58.7322950 102.8455448   6.0429496  98.5478306  68.0547142  61.1856031
  99.1885853  67.3886871  61.4347744  99.0366364  68.6609697  60.6290483
 106.5595627  14.7177780  85.9662247 106.3628483  14.5219815  85.0501537
 106.1448288  14.0084052  86.4571667  25.3512788  26.8407464  70.3685904
  24.5239472  26.4325166  70.1134443  25.8908391  26.8024349  69.5788860
  33.0269194  94.8521328   6.8914729  32.1207190  95.1563549   6.8416208
  33.5431790  95.6522942   6.9887078  66.8062401  47.1956539   5.7239628
  66.4331675  47.0571661   6.5945196  67.2099161  48.0622721   5.7714689
 110.8826351  47.7253199  83.1900787 110.6629372  46.8272829  82.9421139
 110.7200432  47.7601004  84.1327286  21.7574382  99.6561432  41.9025326
  20.8398747  99.7851372  42.1426773  22.2143841 100.4006386  42.2938871
 105.1925373  48.2815933  60.9881115 105.9269810  48.8952541  60.9722471
 104.7262287  48.4870386  61.7984056  43.0182076   9.4281512   2.3849308
  42.2030258   9.6204638   1.9215521  42.7647018   8.8074124   3.0680478
  30.0715470  98.3279896  26.1738992  30.7897830  97.8054428  25.8170795
  29.7477388  98.8316154  25.4270816 109.5360470  50.5142355  63.2775450
 109.0237808  50.4002476  62.4770308 110.2984715  51.0239601  63.0034590
  91.8814945  31.6468740  55.1719761  91.2148094  32.2131705  55.5606508
  92.4178505  32.2369170  54.6424484  39.9522805  92.2042179  39.3119693
  40.7511950  91.9894028  38.8304877  39.5173645  92.8641891  38.7720394
  98.6834049  29.8991156  92.0217419  97.7457714  29.7553253  91.8936729
  98.7407303  30.7704139  92.4139023  52.9612732  81.2464809   8.4019774
  52.6721716  80.3341103   8.3868462  53.5202885  81.3334274   7.6298535
   9.9686158  11.6593635  15.7089031  10.5786395  12.0405364  15.0773895
  10.2650130  10.7551193  15.8124590  71.4024019  99.8898411  59.8310757
  71.9277239 100.1042271  60.6019878  71.9186831 100.2120781  59.0922594
 103.1469345  22.8949761  47.5328970 102.3454285  23.1001663  47.0515299
 103.1690407  23.5343409  48.2449102   5.2393097  80.1849842  46.9534159
   5.9821719  80.4955101  47.4710655   5.5825830  80.1097012  46.0630655
  87.4542046  33.7893772  49.5848846  87.4668407  33.9786077  48.6466599
  86.6259575  34.1577244  49.8923779 103.8786697  26.8059778  49.2988396
 103.6621571  27.7183580  49.1066980 103.3139610  26.5760922  50.0367355
   8.3829808  42.0194864   6.5949810   7.8959250  41.3793325   7.1138358
   8.0480140  42.8678417   6.8853682   7.4804884  19.5159340  35.1746058
   8.2336462  18.9313829  35.2599597   6.8899071  19.2501259  35.8794403
 104.0252113  32.3637748  46.0236359 104.5834064  31.7144346  45.5958366
 104.1678333  32.2228098  46.9595957 112.3662949  34.5487404  75.6487131
 112.0787048  35.0327849  74.8746157 112.8047085  35.2038932  76.1916685
  21.9396377  91.4495182  78.5703087  21.1034346  91.8461609  78.3260441
  21.9045305  91.3852501  79.5247030   4.4773588  24.9841261  62.2840834
   5.3090578  24.5687413  62.5120354   3.8599217  24.2568803  62.2058821
  96.1839867  19.5239723  34.2345858  96.9948387  19.2217338  34.6437311
  96.1830425  20.4707408  34.3755031  95.9799767  23.8607144  67.9898977
  95.9848213  23.0158782  67.5399446  95.4334927  23.7174129  68.7625933
  74.8818159 105.3295803  68.5055828  75.1385403 104.4750500  68.1590223
  74.4447803 105.1307392  69.3336487  23.6889911  72.8543901  15.0403059
  23.7559271  72.0598936  15.5699575  22.7492738  73.0287552  14.9877691
  81.1826420  15.4885626  37.6889157  81.2372017  16.4229786  37.4886107
  80.2437878  15.3047466  37.7202535  43.9725208 101.2947273   0.5128654
  43.8013887 102.0124435  -0.0969068  43.8932800 101.6928768   1.3797159
  73.9578915  32.1551585  27.6483989  74.7035170  32.5715566  27.2160935
  74.1725683  31.2223434  27.6504970 107.5167370  12.4147451  24.3412757
 107.7314568  13.1159449  23.7260962 106.5803814  12.5215113  24.5088220
  77.3126125  40.0098372  29.1270518  78.1792545  40.3261757  28.8719201
  77.4355841  39.6598983  30.0094652  84.4656563  32.8576398  76.6066122
  83.6712265  32.5799799  76.1505365  85.1806164  32.4839854  76.0913992
 112.1983719  54.8879337  41.0344696 112.9696083  54.7919321  40.4757118
 111.5875912  55.4081202  40.5123615   6.6461164   0.2147824  56.0128832
   6.2635899  -0.2572954  56.7525101   6.2980986   1.1031397  56.0899305
  51.3900280  93.5087299  55.5685520  50.9625244  92.6629543  55.4338741
  52.1406651  93.4949303  54.9747610  78.2279921 101.5284920  59.8166466
  77.8426838 100.6554317  59.7421598  79.1628408 101.3915920  59.6631861
  14.0659010  28.8950920  54.2444801  14.0100801  29.4136810  53.4418726
  13.1562507  28.6909270  54.4614744  93.2455730 107.3541641  40.8301401
  93.0864811 106.4593315  40.5298233  94.1144371 107.3215389  41.2304354
 107.3925400  15.3707814  76.2832022 106.4838886  15.2538025  76.0059023
 107.8300285  14.5618808  76.0176468  93.2677746  46.2385845   1.6982795
  92.6764202  46.6002131   2.3583952  92.7892303  46.3267374   0.8739866
  73.2453394  11.6728687  25.4755545  73.8399792  11.6118252  26.2231588
  72.5766277  12.2994971  25.7519484   7.8392696   4.5479563  53.8526344
   7.6847732   5.3061932  53.2892179   7.0337313   4.4600710  54.3621588
  62.6144075  83.0096531  38.5208297  63.0342913  83.1316566  37.6693344
  62.4750996  82.0648956  38.5860133 104.3723583  35.9722853  34.3231392
 104.2920113  35.3022647  33.6442828 104.3627071  36.8009496  33.8441229
 105.8737469  25.3201699  51.9564867 105.8858395  26.0604119  51.3497496
 105.4236126  24.6247363  51.4769173  24.3548417  86.2586403  66.7072916
  23.7156963  86.7564869  66.1975145  23.9926171  86.2401581  67.5931168
  68.6517477  95.7252407  23.7506223  68.2645988  96.5582275  24.0198398
  69.4191647  95.6246662  24.3138194  63.4541416   8.2064086  33.8350272
  63.6236715   7.3396295  34.2040610  64.2352915   8.4036326  33.3181691
  86.3741302 103.1739044  71.4950609  87.2292614 102.9435539  71.1318636
  85.8081818 103.2749176  70.7297230  55.4615355  18.8997698  51.4664316
  55.7920456  19.3502975  52.2436190  54.5689106  18.6442614  51.6991615
  95.4870319  26.1583090  38.2478404  94.9482727  26.6575098  37.6340342
  96.2500858  25.8919573  37.7349615  86.8586254   5.9307545  75.2617121
  86.3541603   5.6698638  74.4912100  86.4747047   5.4287332  75.9806108
  89.5880127  44.5657539   5.3944224  89.3750477  45.4920578   5.5077463
  90.4657841  44.4747019   5.7651782  81.0957050  21.4612222  63.3288336
  80.5906487  21.1799574  64.0917492  81.7182350  20.7498860  63.1781960
 105.0253296   8.8451934  40.3153515 104.8907661   8.0850863  40.8813572
 105.8102989   9.2675716  40.6641436 100.1920795  42.7508736  33.3673954
  99.4195271  43.0845690  32.9112864 100.3908825  41.9238901  32.9282880
  53.9620638 104.2065334   6.1907732  53.3714390 104.8997211   5.8960032
  53.7637329 104.1025543   7.1214104 113.4908581  28.9042473  58.6031199
 112.9699802  29.3453550  57.9320478 112.8949451  28.8117003  59.3464613
  52.1768284  94.6642685  51.4293194  52.7856731  95.4027271  51.4146948
  51.3114452  95.0657463  51.3507938  89.8630810  12.8851616  79.4623613
  90.1701641  11.9855881  79.5750475  90.5853653  13.3311796  79.0200901
  85.5167294  29.9385381  45.8136559  86.3056374  30.3173065  46.2014580
  84.8461342  30.0381184  46.4893913  15.1794827  53.9502239  72.5739288
  15.2361965  54.7545910  73.0896854  15.8171856  54.0713215  71.8704319
  95.0977135   2.8330013  53.7301588  94.6574211   3.4467387  54.3181229
  94.4737053   2.1152335  53.6221838   5.3812468  22.6721549  77.9810572
   5.7411486  22.1400237  77.2714520   6.1439490  22.9254770  78.5010052
 101.9091225  17.5970614  35.2612352 101.0411453  17.5401497  34.8617268
 102.1971607  18.4920883  35.0818062 111.0772419  42.0553875  60.0336838
 111.0891819  41.6221809  59.1802073 110.2936459  42.6047182  60.0125074
  53.6252022   1.0577902  39.9857879  53.3345652   1.0881571  40.8972931
  53.7436867   1.9756690  39.7414708 102.7137184  32.7931666  30.2365565
 102.9764748  32.5403738  29.3515229 102.1470356  33.5541463  30.1099992
  71.0156822  24.9359632  70.3203726  71.7514992  24.4769907  70.7255316
  71.4238548  25.6084824  69.7750759  20.2986288  68.2198429  10.9259129
  20.9888983  68.8633347  10.7656729  20.3544760  67.6186943  10.1831245
 104.6882915  22.7064848  13.4549618 105.1852798  23.5166287  13.5685813
 104.9833107  22.3606658  12.6125777  84.6380711  92.4744320  55.7278585
  83.9615250  93.0495930  56.0852146  85.4536438  92.9611397  55.8470154
  98.6464500  10.0175941  33.3714747  99.1532040  10.1652122  34.1699982
  98.3269978   9.1189802  33.4532166  26.6599679  14.0347409  41.7158222
  25.9875011  14.6864378  41.9140911  26.2482357  13.1954837  41.9216251
   7.0455778  40.1856518  71.1961603   7.0046681  40.9661436  70.6435347
   7.8989208  39.7984362  71.0009670   1.9723028  16.4442992  32.9932833
   2.7400988  16.2600482  33.5343695   2.2512703  17.1547556  32.4156499
  10.6495094 106.8704128   3.1074268  10.3139818 106.4393806   2.3213828
   9.8931956 107.3330498   3.4682342  85.5818558  96.3375282  70.8334684
  85.0327301  95.5717182  71.0014820  85.7328415  96.7184258  71.6985416
  90.9185219  32.3951983  36.2468004  90.8092499  31.5353465  36.6529369
  90.1506901  32.4934721  35.6837726 104.3810844  42.0215082  79.8745441
 105.2953625  42.1316195  79.6134043 104.1088200  42.8916121  80.1661301
 100.3600311  34.9149323  48.8309860 100.6037521  35.6518006  48.2707596
  99.8617649  34.3326116  48.2575226 105.8577538   9.5661688  77.9208565
 106.4871788   8.9081603  78.2159519 105.0039005   9.1486514  78.0341911
  86.2860012 100.7900238  56.7562723  85.4384422 100.4191494  56.5106773
  86.9017410 100.4199409  56.1237049  12.6837969  14.4395733  36.0646582
  13.1959593  14.3267179  35.2639174  12.3074079  13.5755360  36.2320018
  94.1150665  28.1661367  40.2207375  94.8566055  28.3803988  39.6546674
  94.2233467  27.2351766  40.4152107  90.7647228  46.8602180  84.0391159
  89.9952316  47.4017382  83.8634109  91.5077019  47.4173594  83.8071537
  17.4753666  38.4861159  56.6033125  17.2186613  39.1388249  57.2547007
  18.2829285  38.8318729  56.2231445  67.7725935  21.3312793  72.4507141
  67.6047707  22.1874285  72.0569181  68.5989571  21.4417768  72.9209709
   9.0617019  26.5988350  52.5237322   8.3785868  26.2027431  51.9827175
   9.3732089  25.8833194  53.0780172 103.8556099  61.3031673  70.0737524
 103.1863213  60.7977962  69.6123600 103.8097382  60.9921503  70.9778500
  98.6922932  67.3204374  14.8851311  98.7226486  66.3791895  14.7137666
  99.4544888  67.6723146  14.4252658   5.3923553  11.5252101  70.4604530
   5.9683007  11.1644542  69.7863817   5.0366265  12.3232460  70.0695229
  11.3086462  65.2526140  53.2038164  10.8375633  64.4592524  53.4585524
  12.1786368  64.9437904  52.9508829   9.6579266  62.3292589  83.2561302
  10.1917219  61.7792082  83.8294888   9.6180171  63.1742430  83.7040615
   0.3278458   5.5709136  29.7031665   0.8739389   5.9952658  30.3649354
  -0.2137746   4.9560443  30.1979542  78.3236217  43.3844852  56.8331337
  77.8845501  42.9554462  56.0987139  77.9052353  44.2432690  56.8937397
  99.8105431  42.3639154  48.5275650  99.2221546  42.4368477  47.7760887
 100.0751972  41.4440727  48.5361528  11.2777901  48.0722761  39.0266490
  12.0324242  48.6469984  38.8983870  11.2694776  47.8941631  39.9670959
   3.0656984  56.0070276  56.5635633   3.3667845  55.3346968  55.9523726
   2.1254443  55.8493423  56.6489363  15.4202580  13.0131042  21.0052919
  15.8141863  13.7745976  20.5796409  14.6222711  12.8447437  20.5041909
 105.3946400  17.2533619  79.9760818 105.3915977  18.0904770  80.4402542
 105.3270912  17.4918973  79.0515423 106.8097115  27.3918939  71.5729141
 107.3557377  27.2404146  72.3443699 107.2124958  28.1436038  71.1382532
   9.7301495  14.2362678  82.6120567  10.1441610  13.8498390  81.8403721
   9.0449846  13.6130381  82.8536415  95.8995438  31.4736271  35.5739617
  95.7743073  30.9806585  34.7630811  95.2170372  32.1444654  35.5542755
  20.5957150  45.4228306  55.6728315  21.0090041  45.7186365  56.4839554
  20.5557704  46.2065506  55.1247263  92.3689747   5.9510887  50.1987600
  91.6592598   5.3970289  50.5236530  93.1620502   5.5699867  50.5756235
  15.2107060  73.9489794   9.0270060  14.9191761  73.6684275   8.1595194
  14.8395252  74.8249197   9.1327417  32.8495049  36.9225383  46.4247894
  33.7779450  36.7710352  46.2479305  32.5406528  36.0999084  46.8044233
 102.2289181  31.6804671  51.8026829 102.0266342  30.8674574  52.2656345
 103.1058121  31.5407348  51.4452314   5.6843072   0.4094296  65.6862640
   4.8790336   0.5860921  66.1726332   5.3850687   0.0708221  64.8424435
  94.5145512  41.6907549  54.1070890  93.9287949  41.3942432  54.8036575
  94.6782303  40.9072876  53.5820961  18.5917187  24.0034509  58.1709528
  19.0765131  23.9385796  57.3481560  17.7632129  24.4171858  57.9288101
  10.1733363   1.8306220  60.6295204  10.8580053   2.3516327  60.2099895
   9.7451586   2.4385916  61.2322378  98.5910702  33.4838820  51.0524607
  98.6230278  32.6703477  50.5491018  97.7674484  33.4332085  51.5375471
  53.3475733  56.9229460   5.1013368  54.2713404  57.1009302   4.9246794
  53.0896282  57.5973511   5.7297248 113.8674927   7.7205145  50.7731771
 112.9783249   7.3665255  50.7907486 113.7480450   8.6620116  50.6484938
  10.5064452   4.2096043  49.0098333   9.6547443   4.6108440  49.1825914
  11.0934937   4.6075621  49.6526718 101.0721588  54.4297504  46.6015673
 100.3842258  54.5177078  45.9418344 101.4504337  53.5655499  46.4394045
  59.0262365  77.2890377  80.2342987  58.9470530  78.1117344  80.7171345
  58.1235552  77.0398092  80.0360966  14.9107826   0.8811119  64.7146225
  15.1005805   1.5174901  64.0252542  15.5808997   0.2059165  64.6083927
  95.2002525  25.0778389  60.8119106  94.3321705  25.3988743  61.0560703
  95.7416534  25.8656335  60.7619762   9.6277297  58.7856865  50.8527136
   9.2548877  59.3471527  51.5324020  10.4219854  58.4262991  51.2479734
  95.1623821  45.6428719  82.3724174  94.3291283  45.7669115  81.9179535
  95.8260632  45.8806419  81.7249393   8.3547825  20.3150582  56.2722254
   8.8770789  19.6914113  56.7767096   7.5802881  19.8192120  56.0066557
  35.0484800  19.5010543  42.6933622  35.8141208  20.0600195  42.8259802
  34.6985888  19.3613970  43.5733080  52.2471285  95.8850479   2.6633808
  53.1930113  96.0073471   2.5822747  51.9994020  96.4244175   3.4143460
 112.8026485   6.7640823  63.0204773 111.8661118   6.9534618  62.9632425
 113.0471992   7.0306927  63.9066696   8.7037015  50.4287910  40.8108759
   8.9100868  50.5808067  39.8886347   9.3623734  50.9318113  41.2897825
  99.4937229  17.8542364  58.6229181  99.0011120  17.9275513  59.4403505
  99.6303749  16.9136953  58.5091639 103.8601112  40.3413010  21.4748192
 104.7085762  40.1583529  21.0712671 104.0128231  40.2322388  22.4134445
  97.7364445  62.9853249  52.5762987  98.0107117  62.6537180  51.7212915
  96.7875290  62.8602552  52.5885534  97.8961468   7.4017131  33.9659309
  98.0444145   6.4622432  33.8580227  97.6011372   7.4951434  34.8717332
  90.1481915  11.0941410  41.2335968  89.9937916  11.2172985  40.2969980
  89.2816067  11.1754310  41.6319227   5.6872857  10.3696668  61.1878061
   5.4566103  10.5752766  62.0937586   5.7516420   9.4148415  61.1678362
 110.5446911   5.3744543  90.5324745 110.3089714   5.5058736  89.6141052
 110.1261616   6.1014009  90.9935665  12.6994765  46.2089825  49.5629025
  12.2717297  46.3149834  48.7131786  12.0517385  46.5162945  50.1971149
  15.9613037   2.6893875  62.6757145  16.2182260   2.5897226  61.7590380
  16.4247894   3.4733015  62.9704857   0.3945215  67.4241543  33.5227489
   0.6453370  68.3047056  33.2435489  -0.5075284  67.3242664  33.2185125
 108.4650803  22.6410961  32.9990816 107.6066017  22.7127433  33.4163475
 109.0805054  22.5673103  33.7284923  39.3014503  52.9571629  86.9024086
  39.1398549  52.4950266  86.0798740  39.4232869  53.8707113  86.6439152
  19.5155680   4.0123898  46.9441557  19.4491971   4.1447771  47.8898287
  19.8361361   4.8489702  46.6071081 103.4827518   0.7125915  63.2483912
 102.8275776   0.4847349  63.9079857 103.1762600   1.5425560  62.8830862
  24.3738532   8.0092776  63.4963226  23.9260721   7.2217393  63.8053608
  25.1339746   8.0940503  64.0718746  88.2094383  38.8122058  67.7084351
  87.9765987  38.6184382  66.8004322  87.4303722  39.2341971  68.0706501
  88.7634182  26.0669637  63.1730461  88.7574863  26.7330360  62.4856281
  89.4694424  26.3357115  63.7608671  95.2960491   1.9748786  60.1254034
  95.3722191   2.3662594  60.9956074  95.0101948   1.0764966  60.2910233
  54.5444250  13.9380383  57.3992395  55.1791811  14.0973663  56.7007208
  54.5798397  12.9925048  57.5439596  24.7527862  15.4465437  38.4387732
  25.1221013  14.5811057  38.6144257  25.2824545  15.7915986  37.7200103
   2.2911967  13.0820322  36.7135000   3.2028702  12.7909935  36.6940212
   2.2834250  13.8033068  37.3427320 107.8177071  13.7639856  61.8019485
 107.6095295  14.1501796  60.9512138 107.1558285  14.1197526  62.3948956
  90.1072311  26.6924167  54.9427414  90.2428246  27.4292707  55.5384684
  89.2605591  26.8687463  54.5325041 105.0954437  15.8005381  25.8454084
 104.7329140  14.9338388  25.6620145 104.3740940  16.2807798  26.2519193
  26.9247985  48.2796097  82.1485424  26.7435050  47.3706341  81.9095421
  27.6980352  48.2298326  82.7105618 108.3826160  23.7953782  90.5924511
 108.5072041  23.2733178  89.7998810 107.4679470  24.0748835  90.5538082
  76.6658163  82.1549511  34.7863221  77.1466494  82.8128719  34.2841578
  76.0070562  81.8225479  34.1765881  15.9009957  36.2618470  43.8882113
  16.6757882  35.7567382  44.1347742  15.7244360  36.0033488  42.9836464
  84.5781803  99.7934914  48.5059977  85.4573441  99.4270611  48.4109831
  84.0661430  99.0880680  48.9015055  91.9725037  57.4489975  62.6250267
  92.8205204  57.0824528  62.8755093  92.1511841  58.3746672  62.4593830
  97.4709415  51.6100359  80.8518124  97.7640343  50.7066250  80.7327652
  96.9480801  51.7969227  80.0721169  11.3811576  19.6161592  62.3634005
  12.2168124  19.2539263  62.6578522  11.5559661  20.5485606  62.2357321
   7.6193172  14.3385792  66.1417723   8.2312185  14.8957944  65.6608152
   7.2956300  13.7185538  65.4883003 112.0145416  29.3378592  71.9402790
 112.2964859  28.5028148  71.5668631 111.7932892  29.1315985  72.8484297
 105.4865742  44.0111637  82.0565796 104.8443031  43.4923315  82.5408554
 104.9612236  44.5591259  81.4734936 110.8413410  61.9069195  35.4025245
 110.2712917  62.6478291  35.6082892 110.9267807  61.4334154  36.2300062
 100.8456135  49.3893337  63.1452560 101.0795212  49.9940968  62.4411345
 100.1657009  49.8479176  63.6388588 100.4520607  32.7269244  63.1854010
 100.7473946  33.6205578  63.0109501 101.1930847  32.3116088  63.6265755
  16.4818501  36.7967892  53.6644840  15.7499039  37.3106980  54.0056324
  16.1117840  35.9281945  53.5069275 110.4699802  17.1095312  72.2791958
 111.1775684  16.8535101  71.6875792 110.6263733  16.5999925  73.0742693
  85.5200005 103.9306736  55.7316256  84.6226597 103.6320972  55.5837536
  85.7674599 103.5397911  56.5696001  92.1255589  39.6511841  21.2107253
  93.0336571  39.4103098  21.3939548  91.7780876  39.9359298  22.0559549
   5.2422541  85.2773666  36.9443655   4.7431704  84.4677925  37.0526981
   5.0922257  85.7616806  37.7562523   5.9289223  14.7089553  37.3199058
   6.7648172  14.5071769  37.7403808   6.1572903  15.3052962  36.6068435
 102.2442245  25.0293565  33.6531353 103.0329132  25.1611924  34.1792774
 102.5691223  24.7173524  32.8085494  70.2167654  77.0571518  19.3696463
  70.9302425  76.4284420  19.2604911  69.7189808  76.7270422  20.1176238
  11.5028095  14.0336895  39.8760843  11.8638980  13.1724155  39.6661925
  12.2344065  14.6376479  39.7486782  28.2798433  32.0218635   9.2904139
  28.0953932  32.4471474  10.1278758  27.4204803  31.9110417   8.8836616
 109.2496204  93.4994411  55.5814075 109.9922943  94.0568447  55.8137560
 108.4794426  94.0352631  55.7710266  69.0103579 106.3877773   1.4183538
  68.1187916 106.0435295   1.4715719  69.3342638 106.3540077   2.3184507
  74.7283077  74.1526747  39.3217158  74.9074697  73.3267260  38.8723350
  74.9739504  74.8277235  38.6891031  16.9006014  31.5720820  10.1085031
  16.2043738  31.7951179  10.7263649  16.5280187  31.7646766   9.2480844
 104.6374416   4.2076376  46.9862223 104.1118526   3.6448261  46.4176893
 104.3933678   5.0980663  46.7336512 113.4634866  43.5412550  25.8501935
 113.3392151  42.8466320  26.4969492 114.4129893  43.6478662  25.7926631
 106.4584923  29.6114063   6.0640538 106.9578457  29.0978742   6.6990042
 107.0816231  30.2608228   5.7381630  11.1175895  37.1084261  29.1383004
  11.6499341  36.3747144  29.4457221  10.5788839  36.7372561  28.4395432
  32.7480817  62.5160837  91.4652634  33.1192970  63.2169104  90.9292793
  33.4856105  62.1951818  91.9842052 102.4705124  12.4477994  25.5646157
 101.9306374  13.1839311  25.8525085 101.8630028  11.7096603  25.5164480
  75.3201962  99.0858841  44.6435595  76.0966539  99.5993996  44.4207239
  75.4082727  98.2832050  44.1295767  69.1202879 105.3673744  22.9359388
  68.3876896 104.9850082  22.4529028  69.5016670 106.0022736  22.3295593
  74.7412205 101.5447235  33.1262326  75.2713442 101.1160278  32.4543524
  75.1555204 102.3987770  33.2494116  88.0679893   4.9184871  32.8162980
  88.9575005   5.1764148  32.5744724  87.5113678   5.3285718  32.1543074
  16.9808400   1.0364173  44.7606897  16.0916090   1.3867313  44.7079659
  17.5209117   1.6849044  44.3090057  25.2705264  57.4578381  88.1536865
  25.5135989  56.5601254  88.3800983  24.7329473  57.3691750  87.3666859
  72.6653099   2.0689769  14.5049310  73.3942842   2.6876634  14.5502734
  72.0393991   2.3882595  15.1549530   0.7833455  14.7463214  27.6813245
  -0.0258604  15.0448930  27.2662687   1.3063091  14.3944311  26.9609666
  77.9087448  17.2551095   8.6671931  77.0069456  17.4493325   8.4117180
  77.8270674  16.5752637   9.3360507  89.3211746  35.4116821  23.5344434
  89.1225147  36.3348317  23.3777213  89.5162678  35.3642082  24.4703484
  60.5844831  36.1794066  27.6394963  59.9770832  35.5989218  27.1808743
  60.2279425  36.2476707  28.5251880  73.8012600  19.4665349  25.3660011
  74.6497011  19.3888497  24.9297094  73.2409525  18.8355231  24.9142170
  37.1152472  25.7184148  40.5149364  37.2851586  26.1139035  39.6599793
  37.5238395  26.3163209  41.1408710  22.5667953   0.7241581  25.7024074
  21.6456318   0.9842494  25.7091165  22.8185844   0.7582597  24.7795486
   7.9237539  11.5278518  48.1660748   8.7557662  11.9354105  47.9254866
   7.3871982  12.2515750  48.4894419  70.8291769  99.7031975  38.7611437
  70.8325958 100.6603146  38.7489629  70.1497984  99.4581032  38.1329751
   7.8827643  55.8526850  87.7818966   8.6488724  55.4642868  87.3594570
   8.0068344  56.7965174  87.6818371  11.2939453  36.6038561  22.1747160
  12.0818615  36.5434313  21.6345596  11.3548481  35.8578992  22.7714348
  69.6868563  30.8566642  23.1182194  70.3172350  30.7069588  22.4136329
  69.7153521  30.0544024  23.6395597 110.4921150  20.0040865  23.6005664
 110.5549526  19.0734589  23.3855844 109.7325420  20.0653362  24.1798162
  57.0191956  63.9708471  91.1969948  57.5776625  63.8349533  91.9624233
  57.2604275  63.2657337  90.5962849 109.3202877  24.4137526  47.1426201
 109.8077011  25.0514340  46.6210604 109.4588184  24.6894431  48.0487299
  14.2016232  18.7288904  75.9132433  14.3368793  19.6236765  75.6013250
  15.0739479  18.3351648  75.8970499 105.3415585  38.7048721   7.8831834
 104.5611763  38.9585543   7.3903483 105.8732891  38.2162642   7.2548902
  89.6698856  91.7440319  33.9749694  89.8608589  92.3949242  33.2996130
  90.0592041  90.9345055  33.6443233  74.5442295   6.4512616  12.2625732
  73.9180088   5.7892466  12.5555110  75.2568388   6.4055502  12.9000127
  29.3398833  52.9987335  87.5019932  28.8458109  52.1789455  87.5104427
  29.0361691  53.4533358  86.7162895  20.4319358   2.1151902  38.5556459
  20.2786112   2.0217207  37.6154399  20.6581020   3.0381247  38.6708522
  81.5561295  73.3702946  15.0291657  81.0544682  74.1699934  14.8709261
  80.9310246  72.7726412  15.4393911   7.1183115  10.0668848  40.0153780
   6.9661057   9.6563971  40.8665943   6.3425761  10.6080258  39.8682952
  65.6103182  30.3929257  28.9656901  65.5545378  30.3495240  29.9202776
  65.4092360  31.3047957  28.7552333   9.5571840  11.4835727  31.4208460
   9.1318828  10.9996247  32.1287608   9.9773288  12.2251964  31.8563962
  35.6126451  22.4364567  34.7380543  35.4578733  21.5858698  35.1488853
  34.7675133  22.8832459  34.7866631 108.7727833   0.4485632  -0.1412561
 109.1380692   1.1586153   0.3865962 108.0632114   0.0929585   0.3937987
  34.6790719 102.6833248  83.9504814  34.1686058 101.8739319  83.9739799
  35.4703736 102.4820137  84.4500351 103.4500980  21.0951972   1.7775925
 102.5750256  20.7073545   1.7844358 104.0446091  20.3450060   1.7807247
 103.2472515  18.8824904   9.1910577 102.4850750  19.4604671   9.2265838
 103.6261940  19.0387082   8.3260548  75.3659248  87.2618771  14.9029350
  75.0286579  88.0578232  15.3139663  74.5952272  86.7055225  14.7901404
  16.5212858  14.8066795  12.3071659  16.4078534  13.9128745  12.6303959
  16.0282958  14.8291409  11.4869905  34.6953583  31.2239289  90.1654625
  34.4737959  30.5732608  89.4993019  35.0424647  30.7109261  90.8952427
  18.4332609  62.6679802  90.9765625  18.7051022  61.8622684  90.5370617
  19.0140414  62.7350473  91.7344761  93.5212708  30.7938170  37.6485038
  94.1256142  31.3484287  38.1418633  93.0698967  30.2779651  38.3166289
  96.8063068   2.5814116  24.2086482  96.7736816   1.6251487  24.1816568
  96.6077518   2.8022480  25.1186156  13.9943194  38.1716371  27.6088428
  13.0434132  38.1030488  27.6943064  14.2966044  38.4139824  28.4841275
  75.2967644 101.5623665  19.5564234  76.0845184 101.9172859  19.1444647
  74.9431086 102.2919369  20.0652266 107.9396820 105.2592278  36.1216974
 107.1501637 104.9487019  35.6784534 107.6831341 106.0957241  36.5098834
  27.3708773   5.4662865  17.5906825  27.4680877   5.6396329  18.5270226
  27.6441836   6.2798554  17.1668422  98.3941555  15.6881356  29.9394464
  97.5235939  15.6102240  29.5492125  98.9706612  15.2221251  29.3338799
  98.9502907  16.4398527  23.6809778  98.7811279  15.8282971  24.3976474
  98.1088257  16.8703246  23.5297894  89.8823071  34.3765950  29.9285364
  89.8761272  35.3161144  30.1115584  89.0191841  34.1997766  29.5543957
  77.8714800  37.0534730   1.9669464  78.1721640  37.9122829   1.6698523
  78.3909893  36.8758750   2.7510372  20.3235483  39.4223428  89.7815609
  20.4301238  39.8570013  88.9354324  20.1647806  38.5045242  89.5610332
  96.0517883  30.3985953   8.0783743  96.6724586  30.9473825   8.5577786
  96.2987709  30.5040908   7.1596247  84.7580528  57.8059292  49.3045378
  84.4912529  58.0634165  50.1870060  85.3877640  57.0981836  49.4416332
  83.8910866 107.1103191  31.0873413  84.4829559 107.8616619  31.1246872
  84.4558811 106.3526821  31.2397456  10.4481137   0.2505570  52.8740120
  10.8465040   0.7988903  53.5499144  10.6241512   0.7139246  52.0551491
  79.2570305 105.6002522  37.7061176  78.4452868 105.3398991  38.1414533
  79.8415422 105.8532047  38.4206724 108.0651760  11.2871540  21.6019583
 107.1481037  11.1157930  21.3878274 108.2699776  10.6611323  22.2965002
  19.6385634  43.5262203  20.5431557  19.9347198  43.2549667  21.4120317
  18.6864519  43.4328318  20.5746698  27.9661083  28.2689595  14.6896791
  28.0300975  28.0881858  13.7518847  28.8345170  28.5909915  14.9313271
  13.8584721  12.0678270  17.2753930  14.2024612  11.2009776  17.4909711
  13.2187355  12.2496414  17.9638064 109.8250771  17.1440756  27.7239871
 109.3367100  17.5005448  26.9819236 109.9121857  17.8804183  28.3293319
  41.8230391  23.8898396  43.3254671  41.5345526  23.9216995  42.4133301
  41.0672617  23.5491014  43.8039446   5.7868540  18.1560993  21.5761948
   5.2205223  18.8488817  21.2362647   6.5154374  18.6220562  21.9864178
   3.5382086  39.2161751  18.7784088   4.4478661  39.0322661  19.0127850
   3.0815288  38.3873439  18.9223278  17.5132656  13.2953596   8.9434582
  17.2033143  12.6568770   8.3011955  18.4433901  13.0958962   9.0498352
   2.3343728   6.0184503   4.2735541   2.1071984   5.2122515   4.7368762
   1.9780934   6.7179734   4.8212436  97.3223686  29.2759919  36.5082359
  97.1240425  29.0205169  37.4091411  96.6996765  29.9769354  36.3154459
 109.2972469  36.5091038   8.0970109 108.4312439  36.1130381   8.1939167
 109.1246319  37.3748469   7.7269763  90.3730392  29.4869280  22.3439336
  89.9110031  30.3209138  22.4289274  90.7705784  29.5209455  21.4738560
  15.1813018   4.8527062  42.6832819  14.7146833   4.1280138  42.2669649
  14.6353638   5.0899583  43.4328794   1.5861125   3.3560807  26.6877651
   0.8720390   2.7192837  26.7164111   2.3665805   2.8512007  26.9162321
  42.3547077  42.2638798  34.3477535  42.9655838  41.6586781  34.7682238
  42.3205614  43.0175304  34.9368858  93.6596680  49.5917416  25.6993985
  94.0611935  50.4185247  25.9666681  92.7225494  49.7228718  25.8438110
  90.6826115  90.0616264  48.5163164  89.8383427  89.6317291  48.6528111
  91.2740135  89.6290112  49.1321993  79.3902159  74.5225334   4.1978762
  80.2627373  74.2170238   3.9496756  78.7928391  74.0073729   3.6556771
  10.4107714   4.7012118  14.7791934  10.2038407   3.7909144  14.9907815
  10.7648814   5.0615442  15.5922115   0.0803640  58.4590387  55.4499626
   1.0031343  58.6641121  55.2993870   0.0736878  57.9792786  56.2782240
  79.7899723  93.0414963  45.4043818  80.2231789  92.3552704  45.9119892
  79.6757650  93.7619495  46.0241652 100.6106091  14.4901419  28.5839152
 101.4440346  14.7322595  28.9876652 100.3609085  13.6754787  29.0200448
 100.6973648  51.6569376  24.6478558 100.5638123  51.9690847  23.7528944
 101.3472748  50.9592533  24.5636988   2.5982571  77.4808884  17.8726184
   1.8862143  76.9611883  18.2456326   2.2345684  77.8391695  17.0629287
 103.3110428   4.0244782  12.0671237 103.5667229   4.5850432  12.7996731
 103.8312531   3.2291222  12.1812212  38.8035536  12.8123617  52.4100351
  39.2148232  12.8478670  53.2736444  38.1410742  12.1258998  52.4882746
  59.8922920  62.0367289  91.7683601  60.7719040  61.7419195  92.0041656
  59.3777037  61.9175482  92.5666237 112.5058937  26.3348246  47.1510506
 113.3354187  26.7108870  46.8565941 112.6220894  26.2059546  48.0923939
 108.8653946  37.1136069  48.6146927 108.6369038  36.9674158  49.5326519
 109.8159695  37.0053411  48.5843134  47.9120636   2.2623804  87.6090145
  48.2286358   1.9185102  86.7736816  48.2560205   3.1548640  87.6464176
  74.1258240  22.3547292   7.4466258  74.3291521  22.9330063   8.1818020
  73.6663485  21.6148925   7.8438044  95.8191490  38.5683966  35.3781867
  95.3558636  38.6992550  36.2055206  96.3711834  37.8015900  35.5314851
 111.7788696  45.3890133  57.7205563 111.4132786  46.0154963  57.0959759
 111.1606789  44.6582270  57.7164602   8.2301313  45.8890629  29.0224719
   8.5268354  45.2371407  29.6574521   8.7185210  46.6812229  29.2465043
   7.9331040   8.1139350  29.2772007   8.5134292   7.5472987  28.7688923
   8.0893070   8.9914918  28.9283085  99.3001366  38.4025073  36.5792394
  99.6462059  39.0412450  35.9559584  98.7283611  38.9129066  37.1526504
 105.1620674  27.6846504  25.9670472 105.8521652  27.9667830  26.5673804
 104.7612667  26.9309521  26.4000964 106.5506268   7.3700368   5.6266695
 107.4573517   7.1674436   5.8569556 106.5221119   7.2902811   4.6732241
 113.0830002  40.9040499  32.8009701 112.2884941  41.0937929  32.3019695
 112.8894234  41.2128973  33.6860561  13.5595202  10.6818295  55.4722881
  13.0577135  10.9920835  56.2260532  14.2932212  11.2928915  55.4050636
   2.0635162  19.8325217  33.6225462   1.8280271  20.7572126  33.5468912
   1.5034163  19.4993103  34.3236089  89.3088436   1.0377674   4.1303724
  89.8914433   1.7921686   4.0426743  88.5657215   1.3665627   4.6362323
 105.7786179  48.9507294   6.6957086 105.3202724  48.8608122   5.8602029
 106.1738682  49.8217630   6.6595393 109.6930313 100.5368710  32.2805643
 109.7481823 101.4902401  32.2151232 109.3800449 100.3756046  33.1706548
 101.3288784   6.3144958   7.1610749 101.1512852   6.6807085   8.0274349
 101.8513393   6.9845641   6.7203081  24.1697335  84.8087120  88.7022114
  24.9668193  84.7275734  88.1784725  23.5625029  84.1792202  88.3133125
  42.6606655  44.0042591  90.1050282  42.8560638  43.5917711  90.9463882
  41.8003893  43.6607218  89.8639011  29.2661405  28.8704038  35.6516171
  29.1455436  28.1308818  36.2472630  28.3970857  29.2653871  35.5811620
  14.1360950   9.0311122  39.8817396  14.8028994   8.4516418  39.5132065
  13.5902190   8.4569496  40.4189444  20.9323478  56.2908745  17.4350035
  21.5609288  56.9680214  17.6851892  21.3093948  55.4779673  17.7715254
  98.5902500 101.8514729  47.0962858  97.8795052 101.2548256  47.3309946
  98.3047581 102.2529602  46.2755919  20.6018043  35.9525061  15.6215072
  19.6657526  35.7552004  15.5881953  20.6704831  36.8456078  15.2840412
   5.2015859  26.6726708  32.9749489   5.6690985  25.8995676  33.2911348
   4.9850228  27.1626782  33.7681866 110.6013489  24.0114880  15.5541694
 110.1345634  23.2907867  15.9771752 110.3477478  23.9531922  14.6330190
 106.6221523  38.3378553   0.0650106 107.5040245  37.9678845   0.1057910
 106.6288090  39.0445423   0.7105972   0.2091620   6.9934952  19.7027540
   0.7860245   6.6292804  20.3741765   0.1212911   6.2927276  19.0566611
  17.6444840  25.7933903   7.5310409  17.5727093  25.9186792   8.4772879
  18.1955194  26.5177798   7.2346401  11.5603662  48.3565092  28.7608266
  11.8886197  49.0859842  28.2351398  11.3665092  47.6697302  28.1228757
  46.4133406  85.4599190  78.2227421  46.3417101  85.6134605  79.1648293
  45.7490492  86.0302925  77.8359222 102.4423504  33.1902981   8.0181378
 103.0799484  32.6078677   8.4310269 102.9683971  33.9038634   7.6571167
  44.9161434 103.1075859  25.1295757  44.9632835 103.9830303  25.5137682
  43.9885664 102.8757095  25.1750398  82.5776196  84.7252369  45.2643919
  82.5302315  84.5502949  44.3245077  81.7231178  85.0976086  45.4820919
  73.2395601  58.8581705  32.5358486  73.1761742  58.2808542  31.7749810
  73.3633232  59.7315407  32.1641779  82.0342922  80.8203697  18.8683176
  81.1877728  80.9299374  19.3014944  81.9241524  81.2434864  18.0168056
  74.2435884  20.1070809  72.0708323  73.9530182  19.8754644  71.1886978
  75.1919985  20.2093029  71.9914865 102.3759651   1.3686225  28.4799981
 101.6913891   2.0002142  28.7006068 102.8238106   1.7540845  27.7269459
  48.3081069   6.5147070  92.3779395  47.6521697   6.4285282  93.0697118
  48.3946815   7.4588446  92.2462347  72.6492453 100.6159878  35.0001049
  73.3351898 101.1436272  34.5910788  72.5053501  99.8941612  34.3881416
  86.9604015  91.6921997   6.5392566  86.8957043  92.3279572   5.8266175
  87.7288914  91.9690990   7.0382327  11.0994458  49.3148661  64.9634933
  10.3699875  49.8131847  64.5949888  11.8801689  49.7128773  64.5784092
  96.4901638 101.9221497  26.3743639  97.0287704 101.8232155  25.5892849
  96.4360046 101.0393810  26.7404652  11.4182270   7.7636683  25.8925056
  10.8141327   8.5059839  25.8761263  12.1776664   8.0618060  25.3919077
  77.3981285  12.4836707  26.7949176  77.3605394  13.0044925  27.5971413
  76.8853092  12.9840875  26.1602259  34.5886993  73.4423685  39.5574069
  34.6331000  73.2884026  40.5010986  33.6844563  73.7148714  39.4014692
  97.5575638  96.6986370   1.0065828  97.1286964  96.5121555   1.8417628
  96.8439770  96.7124939   0.3687431   2.3964097  38.1591344  76.2742329
   2.8390512  37.8188419  75.4967356   1.4642560  38.0958796  76.0660982
  29.6778345  36.9901371  77.6263428  28.8439679  36.7757630  77.2080803
  29.9017954  37.8556538  77.2843599 106.0715866  44.9011564  78.3263397
 105.9821129  44.5364380  77.4458790 106.7304802  44.3496895  78.7482023
   0.5514148  30.1133943  73.4171581   0.1916834  30.6488657  74.1243362
  -0.1805114  29.9923635  72.8122902  59.0745020  70.2308750   5.3803170
  58.9061308  69.4000053   5.8247662  59.9489212  70.1286221   5.0045896
  86.4693069  64.0315247  32.5068998  86.7589855  63.1656933  32.2194028
  85.7506371  63.8543367  33.1138229  66.5429068  21.5574288  89.8210907
  66.6939259  22.4087644  89.4104195  66.0019016  21.7531371  90.5860996
  89.0393353  91.2891960  14.3125069  88.0938244  91.3117504  14.4598734
  89.1709137  90.5543041  13.7134576  85.2043724  99.9290466  13.7192607
  85.5510330  99.1774178  13.2385159  84.6887493  99.5432854  14.4274664
  64.5525885  83.5770607   0.1424561  65.2782059  83.8375092   0.7097909
  63.9542389  83.1040478   0.7207942 112.8355122   4.9476439   5.4600662
 113.2012939   4.0965366   5.7010084 113.6000252   5.5087352   5.3299338
  73.1844950  65.2659702  19.9968541  72.9615641  66.1421585  19.6824884
  72.3961258  64.7468042  19.8382115  43.5950136  93.0867386  17.6417589
  43.4487772  92.8502750  18.5576916  42.7185202  93.1112385  17.2578394
   8.2516962  75.9085655  87.0436001   7.8105384  75.1097631  86.7545891
   8.2332939  75.8599234  87.9993916  63.1651735 104.0711403  17.8171539
  62.3374987 103.5934448  17.7624774  63.5222387 104.0339661  16.9298244
  72.4636793  23.7787342  30.2955580  73.2609558  24.2990136  30.1960897
  71.8922138  24.0786505  29.5886588 101.5550995 106.6172981  65.0002146
 102.2587395 106.6329193  65.6489611 101.9246864 107.0584488  64.2353439
  85.4743767   8.2972038   1.8866794  85.4798985   8.7631434   1.0505562
  85.2066040   8.9567345   2.5266397 110.6770229  19.4854355   5.7775539
 110.3526306  19.5375001   4.8785013 111.3695526  18.8254881   5.7444662
  71.1304569  91.5749741  34.1390038  71.5718079  91.3468170  34.9571657
  71.4744806  90.9514904  33.4993482  38.1817555 104.6997356  33.7510920
  37.7964830 104.8152351  34.6196866  38.6231446 103.8515472  33.7957168
  96.6957092  71.3583612  90.1118279  96.2193966  71.7215824  89.3652058
  97.4539089  71.9334507  90.2149677  96.6520786  19.4957852  31.3164973
  97.4123573  18.9612973  31.0872936  96.2665558  19.0523124  32.0720983
  33.5293531  64.7570992  89.6760654  33.8974571  65.5240679  89.2373371
  32.7952123  65.1014662  90.1846695  14.3306911  20.3020358  86.8327332
  14.2923594  19.3496454  86.9205666  15.2621019  20.5116415  86.9018173
  33.6512089  48.4107590  43.6360455  34.3826485  47.8837252  43.9577055
  34.0442491  49.2541361  43.4114075  80.2338696  79.2975283  34.0300417
  80.8342457  79.0524006  34.7341037  79.3935537  78.9195919  34.2893910
  83.1896687   6.2250882  24.6040344  82.8595066   5.4481602  25.0552630
  84.0666580   5.9773910  24.3111563 107.2440815  23.1898236  11.4809942
 106.8002224  23.9528084  11.1107588 107.7430058  22.8249383  10.7501268
  59.8911238  86.2151146  50.2559185  60.2855825  86.5482903  51.0619116
  60.6139326  85.7917595  49.7927284  73.3682632  85.2156353  23.7146544
  72.9154348  84.5259857  23.2293177  73.0085421  86.0306549  23.3645320
  45.5746412  14.0346050  75.9659767  46.0213232  13.1896710  75.9130764
  45.3721333  14.2557907  75.0569677 108.8267231  22.3748922  83.3837128
 108.8036251  21.9287705  84.2302799 109.0940285  23.2701111  83.5919571
   7.7198148  76.4102316  57.6792145   8.6404318  76.6059923  57.5049353
   7.6992321  75.4641628  57.8232813  51.7444515  99.9889660  20.6886792
  51.1783314  99.5346165  21.3126254  52.5930738 100.0401783  21.1285090
  81.0512447   4.5290017  14.7142375  81.0928345   3.9218745  15.4530859
  81.7713356   4.2611644  14.1433144  70.6478357  98.9514351  15.1887810
  70.6589317  99.7815800  14.7123671  69.7735214  98.5957146  15.0298154
  58.6248493  71.3608646   2.0965192  58.8599539  70.8308792   2.8581464
  57.7532959  71.0517263   1.8494269 104.8809528   3.3023286  22.5317526
 105.6248856   2.7942875  22.8553009 104.1310787   2.9696077  23.0249214
  88.0293083  55.2590418  80.8824444  88.7904358  55.8393764  80.8936119
  87.5784683  55.4394054  81.7073441  -0.1217554  30.8966947   2.7653569
   0.5596430  31.5575957   2.6423118   0.3270284  30.0620222   2.6306561
  74.5049667 107.2275925  17.3145890  74.5293617 106.2707233  17.3087394
  73.9636707 107.4487591  18.0724287  68.3596706  89.1030121  23.6253095
  67.7987671  88.5534191  24.1726279  68.6671209  88.5173607  22.9334164
   6.7731827  37.0260835  75.9312868   6.1768228  36.2896514  76.0664082
   7.5927424  36.6215324  75.6468725  35.7147837  77.5015068   3.7249485
  36.4278889  78.0124617   4.1078809  35.4727292  77.9833460   2.9340807
 102.9261398  73.0383539  65.2856541 103.8282299  73.1903791  65.5673409
 102.8366756  73.5504436  64.4819164  92.0421982  75.7180786  23.2922602
  91.8985653  74.7845459  23.1369758  92.9368687  75.7700729  23.6285424
 112.8796577  78.9523983   7.2886342 112.9273987  78.0022860   7.3946494
 113.7380219  79.2683172   7.5708228  85.6086636  79.4295216  56.9039774
  85.7392406  79.0038633  57.7513266  86.2396240  79.0048122  56.3228321
  56.2135792  70.9408236  91.5242481  56.9893074  70.7131100  92.0367146
  56.3142204  70.4521132  90.7073879 112.4439335  95.4665089  79.5665693
 112.3337078  96.3549423  79.9053431 111.8999958  94.9234390  80.1370430
  56.3418245  42.8596830  73.8243484  56.6972399  43.6646795  73.4476662
  55.4864550  43.1144238  74.1703033  19.7298014  20.2369809   1.3236819
  19.7560000  19.4900036   0.7257086  20.0079274  19.8788309   2.1666571
 108.3845043  31.7365718  40.4936457 109.0141964  32.1348190  41.0945797
 107.5900650  32.2603321  40.5974913  34.9127555  16.9244897  77.1065474
  34.7745442  17.6593876  77.7040863  35.6115007  17.2189450  76.5223503
  77.9755592  81.1829853  12.1323681  78.6749649  80.7114887  11.6798651
  77.8081846  80.6651878  12.9198372   2.8282401   6.7830485   8.4178549
   2.0820311   6.2936610   8.7641263   3.5858083   6.2286109   8.6047268
  54.2929935  94.9112415  17.7114582  53.5488319  94.8918915  17.1097255
  54.9799585  94.4221020  17.2586203  90.4743004  76.4647818  16.6144192
  89.5760727  76.5263319  16.2893963  90.8731174  77.3016644  16.3760912
  80.1687336  71.6174793  28.5225987  79.5213127  71.4805794  27.8309798
  80.9504890  71.1601734  28.2128024  99.7468567  27.1492815  39.7397161
 100.4482841  26.7019153  39.2663240  99.8917866  28.0783653  39.5607448
  79.1096830  74.0710211   9.0148449  79.8001671  74.1395760   8.3554780
  78.6965799  74.9344730   9.0197170  98.9008808  35.2439046   9.7004098
  98.9740086  36.1215973  10.0752938  98.4447765  35.3757048   8.8692510
  36.6667700  96.1665058  83.6736679  35.8154559  96.1990833  83.2372856
  37.1116519  96.9654369  83.3907795 101.4810753  14.4174302   3.6651540
 101.3655281  15.2560890   4.1118437 102.0019722  13.8922513   4.2726749
  65.3757095  97.7398109  44.4670010  65.7004833  97.2145844  45.1983643
  66.0921144  97.7353382  43.8321924  78.7873697 104.9349213   2.2602439
  79.4497061 105.3830051   1.7341644  77.9966974 104.9592400   1.7212896
  59.0087128 104.2858982  28.0712056  58.2231331 103.8122940  28.3447075
  59.1830301 103.9690208  27.1849561  13.9965856  23.8264298  12.5483763
  13.2034636  23.5626650  13.0148697  13.9799261  23.3150077  11.7394257
  29.4555640  70.1678514  17.6736629  29.8258090  69.8084641  18.4798837
  28.6334801  69.6921682  17.5547862  29.1279936  24.5234609  84.3933773
  29.7645926  24.4552088  83.6818218  28.3975101  23.9710593  84.1150284
  75.7614088 102.9906654  12.5921118  75.2172852 102.5795841  13.2638037
  76.5457010 102.4434566  12.5512314  47.3158360 104.4084644  15.6221986
  46.5000582 103.9216614  15.5049288  47.8055334 103.9025784  16.2706661
  89.6690083  84.2969227  50.9582853  90.3183937  84.9489021  50.6947565
  89.4876671  84.4970798  51.8765926   7.6448756   6.1211604  17.5694060
   7.8120893   6.9688392  17.1574450   7.5005776   6.3279259  18.4928012
  71.6968870  97.5078773  46.5785503  72.4727917  96.9906998  46.3623619
  70.9648514  96.9978428  46.2318182  97.8487396  15.3254795   9.3286413
  97.0073700  15.5679333   8.9419359  98.3546066  16.1380839   9.3303394
  46.2218094  72.4741983  12.4209189  45.6072474  72.8688002  11.8021846
  46.1974287  73.0516481  13.1839347  90.7067966 103.4297180  39.4487047
  90.1773930 104.1411209  39.0883303  90.5379200 102.6876736  38.8681269
 102.0640469  25.4804444  39.0758920 102.5561810  25.9180856  38.3812642
 102.1239090  24.5494223  38.8617754  96.5833187  12.2696614   3.0071777
  95.7167530  12.4505687   3.3712775  97.1914291  12.5048268   3.7079847
 111.2492466  84.8895454  15.3414011 112.0767307  84.4310760  15.4874051
 111.4804554  85.6271172  14.7768128  54.0602064  29.3775868  81.0097218
  54.5274544  28.6729002  80.5610275  54.2161942  29.2140913  81.9398689
  13.3299720  76.6599560  35.2032828  13.4190953  77.2877884  34.4862604
  12.6796603  77.0523834  35.7858014  72.5162983  79.4706059  21.5865278
  71.7114210  79.7470284  22.0247006  72.5155067  79.9511623  20.7587004
  53.8951683  -0.2237768  14.0755391  54.4661427   0.5086831  14.3073249
  53.0991840  -0.0780831  14.5868289  87.8527546  25.6709456  13.8243949
  88.0501366  25.2517152  12.9868281  88.3955669  26.4593196  13.8314283
   2.2839789  16.1387849  11.7070293   2.3935455  16.5394366  10.8446467
   1.4242566  16.4382088  12.0027554  97.4087238   9.9344242  92.1741581
  96.9726944   9.9041104  91.3225746  96.9071388  10.5758476  92.6773643
  97.6696682   4.4259417  41.9700527  97.4952793   5.3505492  42.1458960
  98.6215305   4.3458325  42.0314741  16.8158698   6.4967507  22.2495842
  17.4625409   6.7561424  22.9059124  16.6697538   5.5649066  22.4125218
   4.0054640   4.8884493   2.5502524   3.4350786   5.4083604   3.1164542
   3.4236467   4.5507592   1.8693076  28.3484936  45.7592964  80.3778934
  27.4004388  45.6622887  80.4674149  28.6077523  45.0481892  79.7919369
  63.1131268 104.6282959  51.6735029  62.8430939 104.0043449  52.3473024
  64.0640020 104.5303917  51.6236734  17.4272537   7.8942746  36.3666844
  17.4509799   8.8506776  36.3976932  17.0659554   7.6360339  37.2146273
  43.4451485  24.1993737  25.8706927  44.3694258  23.9559674  25.8187056
  43.2343102  24.5273566  24.9965048  24.6469903   5.7215381   9.7659802
  25.5919576   5.6175917   9.8776186  24.2894888   5.6250852  10.6486583
 105.3779411   2.4683416  13.6518407 104.6116257   2.7076611  14.1730988
 106.0719013   2.3289712  14.2962217 101.6602707 101.6231918  22.8168535
 102.2163391 100.8794785  22.5846720 100.7769585 101.2571049  22.8613806
   1.5921101  87.1965218   4.7833335   1.1241071  87.5255108   5.5507797
   1.0868782  86.4331055   4.5037606  73.7798500 105.2567959   7.0147932
  73.4189320 106.0632133   6.6464692  73.1338263 104.9802113   7.6647085
  29.3097210  91.8014431   9.0662134  30.2013421  91.4803314   8.9315498
  28.8101029  91.0237980   9.3149728  10.0182736  27.6636672  20.6114459
  10.6983578  27.0536423  20.8970809   9.7546172  27.3418975  19.7493660
  82.8043938  84.6990395   6.1681837  83.4451008  85.2159882   6.6565281
  81.9583988  85.0765705   6.4090085   0.9762626  90.6460571  32.2075057
   0.3118882  90.9048367  31.5688610   1.0471062  89.6966648  32.1080899
  72.6307201 105.6150341  26.4847684  72.5739193 105.7280827  27.4335718
  71.9211102 105.0085735  26.2729168 106.7569637  24.2549801   0.6673457
 106.1790943  24.5748472  -0.0254598 107.5999928  24.6709919   0.4871575
 108.1963444 104.5103359   7.3591226 108.3648777 103.6449146   6.9864702
 109.0538502 104.8139954   7.6569521  12.9250884  23.4505773   2.0528987
  13.5596883  23.0341744   1.4696963  13.4350109  23.6978745   2.8242970
 109.4797611  11.9522750   7.3616010 109.8418331  12.5657976   6.7222852
 109.7650146  11.0913444   7.0555574   0.9672443  10.1608753  38.9269829
   0.3862082  10.8317041  38.5683513   1.4366093   9.8188728  38.1660867
  15.0896835   3.9043432  60.2378702  14.9091339   2.9780784  60.0776577
  15.6567466   4.1667426  59.5127344  85.7986164 102.4339008  27.9555178
  85.3114796 102.0902061  27.2066545  86.2438869 103.2101250  27.6157546
 107.7797222  85.1084805  90.8467960 108.5157013  85.5849171  91.2309456
 107.4241638  84.5928955  91.5706730  94.5117569 102.9718304   3.3160743
  94.8847675 103.6246490   3.9084616  94.6305180 102.1387768   3.7723070
  94.3632030 106.0460281  53.1070423  94.4071579 106.9925785  52.9715919
  93.8725376 105.7187271  52.3531485  14.2741454  11.3223970  22.9873347
  14.8195207  11.9240475  22.4805665  13.7832928  11.8882322  23.5832596
  75.5200386  66.0120964  44.9549866  75.8450127  66.4066648  44.1457033
  76.3068962  65.7011747  45.4026604  24.3207598  20.6137061  31.1771584
  24.1534638  20.6430387  32.1191692  25.2662182  20.7403302  31.0977507
  99.9538517  98.9697742  29.3917799 100.5965137  98.5435581  29.9588418
  99.2794418  99.2887020  29.9915195 112.0882320  16.4566576  82.7537346
 111.4995766  16.5973747  82.0121765 111.5713406  15.9451413  83.3761501
  49.0987635  78.5673046  62.0973253  48.8062525  79.2485046  61.4918232
  49.3744993  77.8461838  61.5314770  79.4738913  62.1042776  72.3767710
  78.5937071  61.7993355  72.5970364  79.5241022  62.9829741  72.7530813
 112.4838066  95.0137997  13.1174743 113.2518291  94.8082161  13.6504996
 111.9693756  94.2065907  13.1172740  89.7515106  20.2515030   4.0182415
  89.4329929  19.4913030   4.5049402  88.9798355  20.5819273   3.5582760
  91.5525818  83.2704163  23.7215972  91.9432831  84.1179085  23.9345312
  92.2376442  82.8045273  23.2421541  49.2213869  77.9579926  15.0435722
  50.1555300  78.1479549  15.1303160  48.8511801  78.7497854  14.6533895
  13.8956940  42.4052668  32.3646641  14.4348443  41.7742538  31.8878269
  14.0637994  43.2410812  31.9294786 109.4015217  44.4266701  35.5011606
 109.0646935  44.7644281  34.6712804 109.3017578  43.4772396  35.4314995
   5.2785873   2.4487425   8.6820889   4.4705230   2.9598698   8.6372274
   5.2739841   2.0700845   9.5611960  58.1567192  29.1345453  78.1057787
  58.8719463  29.7635937  78.0110264  57.4957895  29.5989299  78.6193466
  73.3691692  78.7920809  88.2110786  73.4093952  79.6724892  87.8375816
  72.5015736  78.4684610  87.9686260   7.9250747  10.7319367  21.2910938
   8.0215937  10.8092999  22.2402668   7.7802300  11.6293120  20.9911442
   7.4579746  87.7569580  29.8583150   8.3330441  88.1439495  29.8851919
   7.4542838  87.1230698  30.5755377  29.7097635  26.1964726  10.5405724
  29.2680860  26.5567183   9.7715640  29.5457411  25.2546954  10.4917228
 104.0486050  95.8234406  16.8725610 105.0022602  95.7484150  16.9063616
 103.7515831  94.9662304  16.5672791  57.6884985  37.2716713  92.5548172
  56.8129301  37.5177407  92.2563934  58.2099867  37.2238302  91.7535782
  15.8577621  47.3250151  28.8353395  15.8602107  48.2643700  29.0192771
  16.5374207  46.9673204  29.4066095   0.3277063  80.7137012  31.2711620
   0.1158933  81.6301632  31.0937428   1.1086808  80.5421734  30.7449579
  29.0609646  39.5243120  75.6528711  29.9107695  39.9618554  75.7040787
  29.2485189  38.6853337  75.2319527  81.2695503  26.3847375  92.5120640
  81.7829514  27.0628023  92.0728874  81.9107914  25.8940792  93.0261612
  48.4610605  71.2844229  91.5419674  49.2667437  71.6897821  91.2213612
  47.9104233  71.1978149  90.7638168   7.6527381   7.5952417  23.8111377
   7.1950901   8.4155911  23.9950323   7.4003422   7.3760319  22.9142118
 103.3609581  21.3643169   7.4227256 103.3932590  21.6436052   8.3377039
 104.1582298  20.8487034   7.3013985  71.6026068  91.1966419   6.3480157
  71.5281963  90.9983826   5.4145336  71.6866350  90.3409290   6.7686534
 112.8921509  25.3058720  18.9632189 112.5898647  26.1936259  18.7715137
 112.5785065  25.1324987  19.8508036  14.9715924  10.9237230  34.2108893
  14.6632183  10.0419843  34.4198728  15.6604147  10.7885885  33.5601258
  29.8985648  30.9656763  34.0167570  30.0788927  30.1453209  34.4758105
  30.1924491  31.6476870  34.6206832  13.4141386   1.7662898  17.8357637
  12.5161219   1.5841350  18.1125653  13.9552832   1.4678627  18.5667455
  11.6644335  32.2473097  10.3411627  12.2641635  32.6106691   9.6896064
  10.9949160  32.9221749  10.4531252 103.2543850   7.9564500  55.7773590
 102.7958393   7.6876283  56.5734100 104.1610622   8.0862069  56.0554504
  51.7216825  41.0933304  87.7203369  50.8219624  41.1573076  88.0407143
  51.6687155  40.4943085  86.9756222 101.3812065  26.1506200  16.3523531
 101.9319534  26.2126136  17.1327865 101.9627857  25.8039618  15.6757224
  91.8877697 104.9260998  23.2319307  92.7595711 104.6151638  22.9879856
  91.3198280 104.1649437  23.1122541  33.2797813  16.4435852  18.6021662
  33.5994220  16.6945481  19.4688129  33.4459591  17.2106361  18.0542147
  77.2069025  93.0925751  53.1918049  76.9422626  93.9526939  52.8656149
  77.5169182  93.2590008  54.0819883  88.8065338  21.9117928  36.5683722
  88.8295650  20.9653807  36.7097998  88.1466389  22.2300315  37.1844006
  95.8598328  77.8451490   2.8207579  96.1439991  78.4265232   2.1154308
  95.2877808  77.2092056   2.3911473  79.3801355 102.3175335  16.1829376
  78.8022614 102.0867062  15.4556060  80.2450848 102.0140839  15.9072363
  11.4860427   2.0876445   6.3217884  12.4176192   2.1754721   6.1200893
  11.2371683   1.2449776   5.9420443  92.2871685  94.6723175  47.6615286
  92.9001617  94.4902325  48.3737850  91.8077183  95.4486656  47.9507542
  31.9067860   2.7829143  31.8001723  31.4555502   2.1067736  31.2947512
  31.2298727   3.4329468  31.9885230  63.2532740  89.9240494  25.8388352
  63.6569166  90.4398251  26.5368867  62.4386120  89.5987129  26.2218666
   6.5366012   4.3863013  21.9130063   6.7680889   5.2551782  21.5848327
   5.8574587   4.0769774  21.3135767  12.7189946  15.9118974  12.2835779
  12.7434754  16.8326664  12.0231628  13.4052503  15.8320343  12.9460788
 109.2168427  66.4048576   8.5615176 109.6039295  65.9019709   7.8449297
 108.3037376  66.1189795   8.5888320  27.9941821  14.4304490  30.8458757
  28.7750053  14.3655670  31.3957286  27.8648734  13.5442555  30.5079818
  87.7632618  51.0032129  56.4080191  88.2796955  50.9561014  57.2125721
  88.2996941  50.5572128  55.7526159  14.3228829  22.0728421  18.6892843
  13.7489057  21.3848567  19.0261233  14.0752625  22.8544855  19.1831970
  92.9234123  99.3674850  35.5676603  92.6051998 100.2548599  35.4016638
  93.8702202  99.4672012  35.6668544  64.0508556 106.1643124   5.2529621
  64.9802351 106.3845062   5.3161681  63.6035204 107.0105457   5.2552807
  95.0512886  22.7661848  11.7813110  95.3021526  23.3445644  11.0610509
  94.7315311  21.9730258  11.3513255  51.8916178  19.9108374  91.7196178
  51.6781139  20.1534128  90.8186245  51.2414169  20.3695536  92.2516441
  20.8104515  95.0526428  12.6477802  21.0450554  94.1267395  12.7102351
  20.2428842  95.2073765  13.4028673 102.6565647  10.5824924  22.1460938
 103.3898640  11.0003173  22.5976801 103.0608654  10.1123273  21.4169073
  33.0367923  26.1374831   0.7484715  32.7688742  25.4100132   1.3099316
  32.9466987  25.7984471  -0.1421295 108.3378696  28.4589958  47.6390934
 107.7012825  27.8663874  48.0388403 108.1960487  28.3629560  46.6973448
  56.5677547  85.7923412   6.3805616  56.2609053  86.4850521   5.7955551
  57.3395491  86.1639881   6.8076968  81.2487888  97.4742126  33.8564467
  81.6123676  98.3252907  34.1008115  80.3009701  97.6076698  33.8636804
  52.7214479  99.9519444  40.1135254  52.6663113 100.8651543  39.8320341
  53.5634279  99.8907948  40.5647039  16.0567713  99.4802761  20.3989291
  15.3507364  99.3535805  19.7651350  16.2454569  98.6007977  20.7262707
 103.0151844  36.3430905   4.7534415 103.7052155  35.6971121   4.9044108
 102.4328709  35.9273624   4.1175807  94.8358917 104.4065380  23.1569958
  94.7276688 104.3455124  22.2078943  95.3856564 103.6565876  23.3840823
  32.5673437  11.7098355  37.9158354  32.2650695  12.3155308  38.5925913
  33.4210467  12.0527005  37.6515174   9.6630955  12.7687871  36.7113733
   9.6983206  13.6556184  36.3528728   9.7311819  12.8903878  37.6583719
   3.1007192  28.6034799  44.1593838   2.6370656  28.6479592  44.9956131
   4.0010458  28.8499165  44.3713093  98.1933975  32.8644395  33.1179166
  98.3804893  31.9593072  32.8689981  97.2527122  32.8746676  33.2947063
  24.5466638  57.9825544  91.4699745  24.0955710  57.1751165  91.2234306
  24.1326213  58.2469559  92.2914982   5.3308594  22.4114394  16.2128711
   5.3895390  21.4560437  16.2154293   4.6440062  22.6109219  16.8490100
   6.9874728  20.5622602  27.3612404   6.9752061  20.0564122  28.1737661
   6.8998164  19.9064839  26.6694999  35.4002190  22.8531647  84.8444653
  35.5482650  22.9117823  83.9006042  34.6709633  23.4506536  85.0100899
  23.7732387  23.0570006  43.5835409  24.4866800  23.4385657  43.0720329
  22.9784465  23.4264755  43.1988001  -0.0810123  34.5753193  45.3270960
   0.3847298  33.7390995  45.3199100  -0.1439341  34.8223639  44.4044685
  41.5345144   9.7048587  82.5697994  40.9632444   8.9724308  82.3386478
  41.4144754   9.8137772  83.5131741  11.0763621  19.6105731  43.8825941
  11.3642907  19.8811173  44.7544527  10.9718370  18.6613953  43.9486933
  14.4440508  99.5342064   6.4277560  14.6889281  99.9326801   7.2629136
  14.2891443 100.2770138   5.8442563  85.7111835  90.6026936  35.2698898
  85.0227833  90.5681133  35.9340715  85.7105350  89.7291374  34.8785639
  52.4223757 103.7663460  26.0342622  51.6718054 103.6849785  25.4458284
  52.0856524 103.5009575  26.8900752  33.9157557  55.6639624  30.4258895
  34.1119981  56.3548899  31.0586143  33.0188322  55.8445406  30.1445484
  75.2693224  33.1922054  14.2326403  75.0092697  34.1086555  14.3260574
  76.0920334  33.1260800  14.7174108  30.4083562  21.4163089  83.9253044
  30.7501340  22.2226810  83.5390568  29.5136905  21.3512087  83.5912895
  26.9862461  18.2293403  12.2363842  26.4993501  18.9936936  12.5444913
  27.5052238  17.9551959  12.9925179  86.2703323  93.1568527  28.9791012
  86.6425800  93.8162804  28.3935976  87.0172596  92.8365517  29.4848061
  77.2384071  78.1291485  50.3461599  76.9785166  79.0445328  50.2423954
  78.1159639  78.1709194  50.7261372  14.3932831   6.5204638   9.2204285
  14.4424558   7.4237150   8.9074582  15.1583683   6.4213228   9.7870404
  87.1532822  79.6003008  21.0656238  86.9799232  80.3423500  20.4863691
  87.0192719  79.9482250  21.9472241  56.8163633  91.9716740  88.8971329
  56.6467190  91.2001038  88.3566475  56.4887094  92.7052975  88.3768749
 112.4680614  18.4229767  21.4044189 113.2108688  17.8500319  21.2141705
 112.0083046  18.5045218  20.5688286  80.6972966  -0.2055004  15.5045164
  80.5922494   0.3072521  16.3059425  81.6164527  -0.0887230  15.2642167
  51.4286804   9.1630149  58.3892536  51.3506842   9.7615170  59.1321802
  50.7185125   9.4183207  57.8004313  62.9463863  70.7986593  63.0099535
  62.5117445  71.3949537  62.4002361  62.5216961  69.9536371  62.8622866
  35.7644320  47.2414112  83.4258366  36.5466022  47.2988939  83.9745903
  35.2548242  46.5275717  83.8091946  83.8797474  11.7137456   8.5833764
  83.2186699  12.3859155   8.4178686  83.4776974  11.1372566   9.2331833
  21.4100337  35.2315545  24.7079325  21.5583968  35.7803130  25.4780531
  20.7155895  34.6287203  24.9735808  95.1762486  27.6092863  17.9780769
  95.9393024  28.1445146  18.1960356  94.7798252  28.0517554  17.2275448
 107.6304612  -0.0787857  20.8978415 107.3917184   0.1656887  20.0037146
 108.5710797   0.0909302  20.9494948  10.3866076  18.0378187  25.5751967
  10.8357370  18.0435407  26.4204669  10.7595599  17.2884572  25.1108742
 109.6393013 105.2525902  33.5861206 109.6754742 105.5891323  34.4814754
 108.8660336 105.6685257  33.2049608 112.1466351  32.1596432  12.5020576
 112.2824287  33.0173159  12.9047835 112.4910927  32.2547603  11.6140652
  19.1982293  10.9513879  22.1287513  19.4156444  10.7144344  21.2271881
  18.3558023  10.5270231  22.2914243   8.8670778  31.7583394  48.1732035
   8.8674456  32.5504613  47.6358223   8.2787651  31.9623661  48.9001751
  53.3234501  79.7911978  79.7487068  52.8502655  79.9460745  78.9311886
  53.7306213  80.6330490  79.9529600  27.7553248  20.5391574   4.3416524
  27.5014734  20.5520368   3.4188172  27.2959328  21.2853503   4.7268656
  85.5587101  93.1191921  72.8707314  85.6231499  92.1664619  72.9369640
  86.1113739  93.3451939  72.1225882  56.6695023  67.8321838  91.0872746
  57.0552635  67.1409655  91.6254616  55.7394886  67.8209734  91.3135052
  27.4210286  37.4726582  87.6088810  27.0461535  36.8037391  87.0359516
  28.2802010  37.6584053  87.2299957  98.7860680   8.4064001  77.9539871
  98.5975266   8.9124376  78.7443113  98.3704662   8.9012837  77.2478819
   7.0450574  16.3790560   3.5273489   6.6585952  15.5877721   3.1521848
   6.9041836  17.0529103   2.8622875  68.1000996  59.1450357  16.7377722
  68.0428600  59.5471382  15.8710158  69.0073919  59.2865515  17.0080125
  65.0502157  83.9460182  31.8067241  64.7263241  84.7648525  32.1819949
  64.3901205  83.7023449  31.1577725 112.3176670  86.9520283  23.3859992
 112.4707031  86.0762405  23.7406921 111.3645458  87.0343113  23.3540440
  87.0790768  97.7552605  28.4511852  87.6972008  97.9301834  29.1608024
  86.2378788  97.6324844  28.8911152  84.1022110  93.1883335  64.9954462
  84.3700027  92.3431587  65.3562784  83.9457893  93.7378883  65.7633924
  65.9957266  86.8648624  16.1682594  65.4131842  87.3250866  15.5640483
  65.4221916  86.2621593  16.6415799 104.4386387  91.3336372  24.4754124
 104.5133018  92.1736050  24.9283075 104.5048428  91.5555763  23.5466552
  99.6096516  82.9536438  58.7923574  98.9876747  82.6498890  59.4535017
 100.2066040  82.2157764  58.6681747  22.5388956  27.7212524  36.4875627
  22.4416828  28.6368465  36.7492318  22.4985814  27.2317719  37.3091555
  92.9355335  87.0092773  47.9839945  92.5282001  87.2688007  47.1575832
  93.7240124  86.5332794  47.7232885  96.5420341  72.9878807  20.8509636
  97.3896980  73.4272099  20.7824874  96.1690617  73.0485916  19.9715114
  99.4567585  87.2529411  25.8936977 100.2046108  87.0675564  26.4616513
  99.4444942  86.5274620  25.2693844  91.5528870  98.0722713  22.2803211
  91.7198467  98.9112663  22.7097797  91.5962887  98.2693291  21.3446307
  42.8219700  35.0470066  92.2411251  42.4385262  34.3450332  92.7668953
  42.7441645  34.7396398  91.3379669 100.1841736  22.6099849  46.3139153
  99.4960785  22.9092121  46.9082403  99.7794056  21.8985009  45.8177471
 107.8431606  80.4425716  84.1483688 107.3744488  80.2635765  84.9635410
 107.1531868  80.6246471  83.5103893  81.4292145  90.5868435  50.7833862
  80.7515335  91.2557602  50.8810282  81.0308552  89.7895718  51.1325121
  58.7996769  92.0867538  35.4655313  58.6691141  91.2747860  34.9757433
  58.4650421  91.8945217  36.3414884  30.5177379  13.3900011  21.7019486
  30.3575253  13.9756465  22.4419379  31.2881207  13.7571073  21.2683892
  57.9389000  69.4762278  89.1282749  58.4618521  69.7247028  89.8905182
  57.4301624  68.7207937  89.4227886 106.7626572  89.0680790  24.3582606
 106.6149330  89.0079689  23.4144402 106.1548042  89.7461700  24.6531153
 100.0112820   8.3047223   1.7364235  99.4107056   7.6034045   1.9888048
 100.7947159   7.8496122   1.4276697  27.5345421  47.2041225  19.8811400
  26.5838313  47.1050596  19.8304617  27.7937436  46.6530609  20.6196380
  87.5024414 104.2712688  59.4699860  87.8460693 104.7400570  58.7094641
  87.3176384 104.9576569  60.1110363  95.6506348  32.8564858  44.5645905
  94.8988533  32.5773978  44.0419292  95.3121567  33.5653400  45.1115751
  35.8462286  10.1568556  18.4630084  35.6264830   9.2277229  18.3947754
  35.0048399  10.6077743  18.3924949  28.3597207  62.1024466  68.0187464
  27.5107574  62.1680307  68.4560061  28.1865597  62.3743343  67.1174574
  54.5993185  44.6639729  78.2283449  54.5027590  43.9245653  78.8284969
  54.6221113  45.4331398  78.7976408  25.6756210  27.2870827  10.5394363
  25.3623700  26.3880658  10.4400647  25.4290724  27.7184391   9.7212815
  25.7089591  12.2621119  19.8199797  26.4775896  12.8205502  19.9365366
  26.0689044  11.3965368  19.6264613  60.5828857  96.0933590  61.5113258
  60.5008125  95.3196907  60.9537077  59.7631931  96.5702820  61.3813972
  74.1182756  69.5823956  13.0268037  74.1522169  69.5417166  12.0710719
  75.0271034  69.7216368  13.2930326  55.3863001  84.7311974  14.1156042
  55.3141832  83.8931561  14.5724452  56.3282204  84.8897266  14.0532684
  33.4595227  45.2189589  61.4897156  33.6847544  46.0187817  61.9648838
  33.3668971  44.5534134  62.1714067  24.6003866  25.1930833  19.1450465
  24.1377711  25.7899547  18.5568607  25.0320411  25.7671094  19.7778213
  10.3643322  77.3132801  86.2586594  10.7584333  77.1022034  85.4122734
   9.5977300  76.7428446  86.3148403  31.5317369  45.8291340  65.1039791
  32.0266533  45.1333809  64.6712923  30.7499528  45.3923321  65.4419851
  18.4988785   9.9408120  13.6157382  18.4301579  10.4275024  12.7943730
  18.0000901  10.4616153  14.2451870  88.1225777 102.5493431  35.1168728
  87.5581837 102.3589897  34.3675637  88.3309460 101.6903114  35.4841232
  33.8750148   2.6772255  19.9825585  33.9405084   1.7648926  20.2646780
  33.9553809   3.1841332  20.7905293  52.0121288  43.0046606  91.9448566
  52.0659208  43.7144327  92.5848293  51.3014650  43.2642078  91.3584900
   2.9604536  93.0028057   4.5148429   3.4801453  92.4438190   5.0924993
   3.0026361  93.8695812   4.9187702  35.5198574  12.4549317  28.7558937
  34.6495271  12.1072507  28.5612798  36.0829186  12.0856535  28.0755830
 112.9386044  37.7263260  26.5571332 113.6438560  37.5525451  25.9337163
 112.4891567  38.4934807  26.2025857  29.3619800  21.6517377   7.3713100
  28.5548091  21.1395597   7.3224932  29.2776299  22.2990155   6.6712052
  52.3448849  70.8835316  92.7078533  51.6008282  70.3613186  92.4080086
  52.9403543  70.9042549  91.9587040  13.0574107  59.0238523  21.7156601
  12.2815120  58.4697628  21.6308403  12.7223516  59.8554850  22.0508504
  47.8276634  76.8139505  83.8196278  48.6906815  76.9547987  83.4302807
  47.6963139  77.5705862  84.3910217  25.8256602  15.8671546  12.4106979
  25.1783085  16.2693322  12.9898536  26.4680958  16.5588939  12.2525692
  98.3335686  97.5854301  12.4925518  99.2673206  97.4257374  12.3553038
  98.0667496  98.1098270  11.7375326  66.6482496 106.0878563   6.2271416
  66.1282158 105.3453159   6.5344340  67.5074148 105.9615231   6.6297626
   7.3823786  19.7679138  11.6435838   6.7387021  20.2511358  11.1255026
   6.8794239  19.0656042  12.0559311  59.4736052  66.5671778  90.5117607
  58.8865042  66.4030790  89.7737789  58.9382601  66.3955641  91.2864780
  83.8689613 107.3531532  20.2605534  83.2920361 106.9104958  20.8830047
  84.6537209 106.8059063  20.2304244  82.1000004 102.0722008  16.7584074
  81.6386318 102.4540234  17.5051236  81.7866325 101.1685658  16.7198324
  71.1705685   3.7198544  16.3305879  71.0669518   3.4699830  17.2487700
  70.4353046   4.3079171  16.1579561  13.5483372  24.4515824  32.6661372
  13.3255446  24.0115356  33.4864759  13.9916396  25.2551627  32.9381180
  13.9527500  35.6624436   4.2480201  13.3421767  35.0672054   3.8131371
  13.5493469  36.5259743   4.1596323  88.8397408  92.7213478  25.8635306
  88.1507778  92.1035099  25.6189036  89.0891647  93.1404018  25.0398707
  28.5243154  96.4071178  16.1457479  28.1016564  96.9983292  15.5228090
  28.8701820  95.6969547  15.6051147  18.7398291  68.8359261   6.3113338
  19.3298161  69.5799351   6.4321369  18.1165862  69.1298771   5.6469595
   4.1881236  37.4845266  12.9174924   5.1105464  37.2701550  13.0568218
   3.8680950  36.7971849  12.3332202  82.4370003  91.4867878  25.6437898
  83.1270695  91.6662121  26.2824178  81.7171288  92.0629692  25.9007621
  50.7164717  30.0444484  92.4504757  49.8436117  30.3179240  92.7325344
  50.9261227  30.6276512  91.7209911  15.7328117  14.9353755  52.5566578
  15.7308698  14.2099607  51.9321537  16.0327947  15.6886208  52.0478678
  31.2423635   2.8170323  10.9930909  32.0551348   2.4305069  11.3190281
  30.5503297   2.2778526  11.3759816  14.9722993  30.4593706   4.7030458
  14.2932713  30.6725907   5.3431165  14.5686972  30.6444240   3.8550529
  80.3927040  13.9158106   2.3773354  79.8027229  13.1665921   2.2947469
  80.1106930  14.3554711   3.1794554 104.6616554  68.1940079   1.0534386
 104.6871281  68.2778358   0.1002564 103.7316990  68.2474375   1.2738086
  54.0489435  88.9225197  26.6251898  53.5737896  88.9252186  27.4561262
  54.2281485  89.8460960  26.4487600  99.0874767  22.6173234   9.8523211
  98.6607265  23.0860329   9.1350818  98.4605408  21.9381595  10.1011539
  75.2658939  85.7812691  25.7143927  74.5036364  85.3994656  25.2791595
  75.0481606  86.7085552  25.8090425   1.1602904  26.8747163  11.6020489
   0.2254944  26.8612504  11.8074918   1.3699706  25.9673715  11.3807166
  62.4592113  12.1349061  15.5285013  62.8057671  12.9874313  15.2651882
  62.9185295  11.9308853  16.3431406   7.9694426  30.8324885   4.7052035
   8.6491501  30.1653147   4.8006347   7.6295823  30.7032228   3.8197565
  19.1210485  13.4383082  38.5348797  18.9477122  14.1309929  37.8974032
  19.5744789  13.8810098  39.2522669  85.3114414  71.0702991  81.8022060
  85.0804901  70.1532078  81.6544533  85.0321960  71.2458420  82.7007866
 101.6296387  29.3690562  11.8577850 101.3569260  28.8497853  12.6142359
 101.1319828  29.0052080  11.1255360  90.5451488  39.0500522   1.2060872
  91.0450840  38.7974286   1.9822833  89.7180653  39.3850017   1.5524478
   3.8016650   4.0792516  15.5141032   3.5939965   3.3350763  14.9490285
   4.3231952   4.6613866  14.9615109   8.3498669  16.5245211  21.7274404
   8.1479335  17.2341800  22.3372269   9.2799020  16.3462055  21.8669772
  37.1604443  25.5003357  13.2483542  36.4730954  25.6403160  12.5970554
  36.7026305  25.5241585  14.0886343  54.7636986  35.6385660  16.0757768
  54.2238188  35.1148987  16.6678357  54.9042892  35.0729513  15.3164721
  21.4632797  13.4710479  36.7960310  21.0560656  12.9533172  37.4905539
  20.9425592  14.2733479  36.7586946  99.2236519   0.2136526  40.1196194
  98.9170361   0.1828580  41.0258627 100.1782894   0.2140564  40.1896429
  88.7467194 104.1633320  51.8490458  88.2956791 104.3003273  52.6821280
  88.7090588 105.0148296  51.4134312  28.1400251 102.1468925  36.1799216
  27.4703550 101.9508362  35.5246854  28.6237621 101.3270950  36.2807202
   5.7788628  32.9245710  30.1399374   4.8989987  32.7215219  30.4574943
   5.8794236  32.3881125  29.3535972   9.7829509  18.2023776  36.4900756
  10.7372785  18.2111740  36.4164925   9.6143603  17.9028177  37.3834229
  21.8982339  89.6190262  76.4709663  22.6136398  89.5825481  75.8360672
  22.1466064  90.3217602  77.0715570  24.2627788  53.3210325   6.3366354
  24.1055536  52.6968336   7.0450783  24.3732262  54.1626358   6.7790568
  18.9218414  56.6430998  23.5492134  19.1845429  56.0430670  22.8512335
  18.2042253  57.1511316  23.1708431  85.4299450  97.0716095   6.5126175
  85.2626133  96.2866879   5.9909660  86.3014412  97.3589230   6.2402368
   0.2116245   5.9673840  12.9098260   1.0230534   6.4640105  12.8041065
   0.3007140   5.5417055  13.7625241   6.9419360   2.5761104  19.5575035
   7.8266263   2.9393247  19.5171309   7.0513582   1.7256799  19.9829757
   1.2505560  33.2274222  11.2965596   0.9269445  33.2258081  10.3957248
   2.0497650  32.7015948  11.2648964  18.0087602  47.0538473  24.5272446
  17.9953361  47.0598841  25.4843307  18.3431625  47.9179430  24.2869425
  60.6632614  59.3596601  84.2022419  60.0770617  58.6064863  84.2752361
  61.1120176  59.2337513  83.3661747  33.1470299  48.5618114  22.3776293
  33.2454586  47.7155542  22.8139758  33.9449859  48.6574316  21.8576741
  35.7381964  23.8537312  27.8774023  35.0778437  24.3329430  28.3779240
  36.1637878  23.2884645  28.5220551  26.2618732  28.6765170  20.1221943
  26.6336679  29.5024109  19.8125184  26.2790847  28.1037021  19.3555009
  29.3238902  16.5424716  21.2437153  29.9730992  17.2251451  21.0742497
  28.7511539  16.9173908  21.9127727  95.2652264  97.1071148   5.9337533
  94.3866253  97.3745632   6.2035018  95.8505154  97.7092552   6.3932091
   7.1062922  60.8113003  19.6064270   7.7180403  60.7158279  20.3364134
   7.4780762  60.2700043  18.9100039  62.6801157 106.2656116  15.1675057
  63.5035419 106.4785957  14.7283733  62.4419546 107.0678902  15.6321168
  35.7793403  18.7381113   2.9828888  35.9976172  19.6584642   3.1296453
  36.4407778  18.4310043   2.3628765  25.8906126   9.2439216   5.4145002
  25.2471542   9.5249021   6.0650730  25.5259633   8.4375846   5.0496954
   0.7187315  54.6623945   9.5086300   0.8601053  55.5595684   9.2064381
  -0.1644021  54.6703434   9.8777419   1.0847719  14.4763935   7.2648495
   1.0139447  14.5774031   6.3156331   0.1931173  14.2795396   7.5519598
  68.3812618  64.7331524  83.1437016  68.8510799  65.5669546  83.1273174
  67.8263903  64.7555208  82.3640537  24.5368910  43.3174086   2.8460452
  23.6946511  43.6726999   3.1300008  24.5527935  42.4277830   3.1989568
  15.7375777  16.7406034  20.6489730  16.4084601  16.2113082  20.2177000
  15.6253397  17.4987447  20.0755119 105.6605434  10.2060020  20.7979369
 106.0885715   9.4600642  21.2181711 105.0397301   9.8118961  20.1851559
  82.6220798  99.5554733  20.7159519  83.2489586 100.2688980  20.8354735
  82.4791813  99.2119312  21.5978765  28.9205623  10.5917811  19.9605191
  29.4376445  10.6428516  20.7644153  29.3513513  11.1997080  19.3596208
  92.5298405  94.1868687  15.5851257  92.5315571  95.0829983  15.9215486
  92.9026699  93.6638832  16.2948513  13.9168155  18.4930182  34.6917224
  13.2096553  17.8481770  34.6733594  13.6790752  19.0890408  35.4019809
  29.6793056  14.9501228  15.6110549  29.9172616  14.4188082  14.8512423
  30.4608512  14.9414206  16.1636341  81.6274643 105.5669212  31.2088561
  82.3128510 106.1811829  31.4718461  80.9009361 105.7491779  31.8048215
  51.2131739  86.6527462  15.3462362  51.4029980  86.6068077  14.4091725
  50.7391310  87.4772549  15.4544461  19.4483626  20.8672047  36.3092923
  19.9501729  21.1920500  35.5617023  20.0801325  20.3610587  36.8200922
  73.6041307  35.0544405   8.6889398  73.3191919  35.5051637   7.8940260
  73.8268375  35.7592273   9.2971402 102.8376484  28.3162260   4.8034698
 103.7367916  28.0540752   5.0010669 102.7007771  28.0385876   3.8977015
  92.2408009  91.3262939  43.9543581  91.8251610  91.3011742  44.8162365
  92.5757790  90.4391384  43.8240528  40.0576258  15.5285430  27.7186775
  39.5346141  14.7421086  27.5630784  40.7604313  15.2376902  28.2997942
  49.8068237  81.6625309  87.3622704  50.7590628  81.6151333  87.2772694
  49.6016598  82.5899601  87.2439098  40.1444406  29.9669569   0.5583486
  40.3649253  30.8707064   0.3328046  40.4431027  29.4531553  -0.1920119
   5.5968279  15.3271306   8.3742434   4.7880581  14.8200345   8.4447950
   5.5539513  15.7267547   7.5055122  14.5094264   0.6650162  40.6351471
  13.8219404   0.2605050  41.1642647  15.3246200   0.4159919  41.0706663
  19.5799577  37.9509711  23.1498957  19.6504855  37.0737553  22.7733970
  20.4853320  38.2144403  23.3145595   3.1763455  39.1718936  11.0072100
   2.2773425  38.9813232  11.2749934   3.6955839  39.0401030  11.8004656
  65.1026726  78.4442759  47.8852844  64.7188854  78.9908648  47.1995926
  64.9090385  78.9096785  48.6990023  95.1482201 104.7625160  20.3623772
  94.6699047 103.9986134  20.0400305  95.5099106 105.1685715  19.5746386
  57.5684690 107.0323086  13.9976084  58.3576107 107.1400547  14.5285273
  57.8953457 106.8303204  13.1209207  28.2935357  23.4236026  61.1050653
  28.5183835  22.5306726  60.8436251  27.3659086  23.3788967  61.3368797
  10.8211851  50.9595394  92.4494076  10.6818748  51.0586643  91.5076065
  10.0184786  50.5468559  92.7681351  74.5259380  88.6279202  90.8008003
  75.1545620  87.9117107  90.8907986  75.0107479  89.4075775  91.0715961
 113.5104370  17.5436640  12.8582060 113.3938694  18.3435619  13.3708537
 113.2685089  17.7933574  11.9663811  47.8374720  17.0369279   8.8464618
  47.2053671  17.5813055   9.3158579  48.5618830  16.9259930   9.4622135
  38.3501554 104.3633461  62.0207739  39.0062237 104.7811031  62.5786972
  37.5746226 104.2896748  62.5769663  58.8345352 106.7677072  76.1379004
  58.0671230 107.1473529  75.7098961  59.2755809 107.5136605  76.5444231
 106.7301464  14.4493282   5.0743657 107.1049023  15.3301203   5.0755161
 105.9848785  14.5053446   5.6724197 103.2784557  62.1768808  23.2588983
 103.7365437  63.0153275  23.3171344 103.5573483  61.6969061  24.0386915
  16.9879293   0.8716340   3.3577937  16.2932229   0.4191513   2.8793859
  17.4036121   0.1865536   3.8813442  27.8166509  13.7419558  17.3656547
  28.4510851  14.1885388  16.8050396  28.2336545  12.9080212  17.5822031
  63.0079508  27.8913307  21.1602879  63.9343596  27.8689194  20.9204912
  62.9284048  27.2525692  21.8687272  44.7058725 101.1527729  11.6134286
  44.7290659 101.9350433  12.1645617  44.7082663 101.4906025  10.7178319
   8.3583385  57.7182388  20.3816867   8.0867285  58.4691954  20.9094357
   9.0999132  57.3458624  20.8588004  24.7320056  23.7764907  25.8485150
  24.8666358  24.3233943  25.0745630  23.9172935  23.3064651  25.6708789
  56.4959145  95.2061367  92.3357010  57.4120378  95.0415897  92.1123695
  56.0040665  94.5764542  91.8086243  39.4575191  43.3057785  26.2484527
  40.2811670  43.1241751  26.7010665  39.7204876  43.5476637  25.3604364
  94.2796516  15.9473062  10.6564450  93.5453796  15.4238331  10.9774625
  95.0325298  15.3580666  10.7034862 107.9505920  35.7191944  31.4012504
 108.0517960  34.8235750  31.0789895 107.1371746  36.0270882  31.0015082
 108.2664394   4.0292731  39.2751050 107.8873920   3.3461240  38.7220526
 108.8471317   4.5161113  38.6902905  46.3693476  50.1695442  88.1984806
  45.5252552  50.2336884  87.7516842  46.3081884  50.7984924  88.9174461
 113.8409233  21.1380124  36.1219668 113.9726639  22.0667386  36.3126135
 113.3007526  20.8193398  36.8450761  73.7755585  75.7487011  86.7810535
  72.8420210  75.5372381  86.7761707  74.1441393  75.1899195  87.4652576
  88.3528996  99.3074989  22.9897189  87.4491119  99.5655727  23.1708264
  88.3919621  98.3832836  23.2357597  49.3872499   6.7600048  21.3391328
  48.8084555   6.2590748  20.7644153  50.2561188   6.6600031  20.9501696
  73.8205194 106.4768791  38.7135005  73.7529325 106.4561749  39.6680856
  73.7494993 107.4045277  38.4884167   2.7737877  36.0833144  22.6377153
   3.2437062  35.8717608  21.8310857   2.5139636  35.2335024  22.9934478
 113.4299183  35.9488559   7.3427075 113.6280441  35.2026558   7.9085362
 114.2804909  36.3544226   7.1745449 106.8742561  14.1455126  17.6888657
 107.0511627  13.3095622  17.2574484 106.1092567  14.4940889  17.2311437
 102.6042175  24.1916013  22.9098272 101.7457867  24.5492172  22.6830006
 102.8510189  23.6620450  22.1516156 109.0392780  22.6798105   9.7058070
 109.3909550  22.4465418   8.8466561 109.2992020  23.5924602   9.8312563
  27.6281738  14.6371174   1.8821752  27.0702958  14.4437790   1.1287665
  27.0509744  15.0885618   2.4980243  13.2786405  21.8718767  10.7802439
  12.4915135  22.0312142  10.2594042  13.4327447  20.9306145  10.6995714
  23.0707932  18.3362412  44.2970181  22.1370697  18.1868017  44.4455481
  23.4696794  18.2372856  45.1615000 102.2201538   3.8381886  18.5735726
 102.9710293   4.2502534  19.0009165 102.0796776   4.3583134  17.7823913
   3.5243726 102.3526287  40.6768370   4.3536168 102.3983097  41.1527538
   3.0230474 103.1027222  40.9966230  12.3392057   5.0899017  12.8076720
  12.6898396   4.2265859  13.0266976  11.6365409   5.2310455  13.4421587
   1.6296315  31.1874843   5.8769876   2.4372196  30.8473253   5.4918563
   1.8341660  32.0958757   6.0988444  78.4309149  12.2445929   7.2578311
  78.1764603  12.5645912   6.3923335  77.6575661  11.7805588   7.5785160
   5.9437686  46.9299889  17.9813755   5.5456662  46.7857265  17.1229267
   6.3141793  46.0800934  18.2194889  52.8113031  94.8259926  82.3640633
  53.1476355  93.9348507  82.2692776  53.5132551  95.3008556  82.8090382
  59.6026039  95.3950119  29.4508171  59.9712801  96.1503410  29.9088478
  60.0381517  95.3957748  28.5984492  30.3379536  11.5634120   3.5753343
  30.1426792  12.4877322   3.4212855  30.3764033  11.1776447   2.7001560
   1.2359410  26.1704373  15.9701514   1.3675699  27.0150590  15.5394316
   1.2703210  25.5308843  15.2587986  17.8657794  13.8180482  21.8162990
  17.3237586  13.9037609  22.6005816  17.6822770  12.9357708  21.4935827
  96.7349815 102.6220703   8.7469625  96.8113232 102.8398895   7.8180069
  95.9338474 103.0621529   9.0311092   9.9627042  93.2642365  19.6736741
   9.9728310  93.4156418  18.7285781   9.5960146  92.3854923  19.7715497
   1.6245827   0.6021725  39.3026257   1.9225335   1.4910153  39.1091943
   2.2915441   0.2487683  39.8912692  95.5070019  42.7598143  32.3069668
  96.0334301  43.5533237  32.2097492  95.9842682  42.2327805  32.9478073
  19.6794009  15.9930873  16.6302252  18.9455009  16.6005254  16.7231870
  19.8811829  15.7223821  17.5259006  71.2235212  41.2873077  17.9425871
  70.4311609  40.7666779  17.8109133  70.9462881  42.1896696  17.7840972
   3.0993834  39.1682625  45.7096386   2.6531625  39.9916267  45.5116796
   2.6996040  38.8695431  46.5264511  70.8046532  52.5250912  87.6458359
  69.9034977  52.2054100  87.6901054  70.8157539  53.2905340  88.2204723
   5.0321883  15.0234663  13.7483478   4.6983925  14.3172169  13.1951523
   4.5749655  14.9113643  14.5817816  13.2224047 103.2072639  12.9953396
  13.9350319 102.7550030  13.4468412  12.8726673 103.8142776  13.6476064
   7.1825725  11.9055712  15.2464104   8.1193995  12.0859468  15.3241980
   6.9485211  12.2258413  14.3752730  18.0872405  14.3865013  29.5744610
  17.5311100  13.8863003  30.1717472  18.6854053  14.8650956  30.1483750
  31.8559766  28.2689977  10.7615411  31.4692354  29.1147161  10.5347776
  31.2602162  27.6235032  10.3812325  71.5049601  78.4403086  91.3850212
  72.3238277  78.0142164  91.1317825  71.0716391  77.8061199  91.9562244
  11.8560898  37.0312023   9.2277271  11.5460050  37.4238586   8.4117001
  12.8054452  37.1515179   9.2058194   7.6874739  15.5770302  32.8402662
   7.5388741  14.9971795  33.5872102   8.6297619  15.5248225  32.6802683
   0.6885573  24.0897059  14.2306685   1.4021817  23.4632063  14.1103745
   0.2906851  23.8421798  15.0653303  89.7460651 102.5117111  61.9608974
  88.9095974 102.0463562  61.9597721  90.1015854 102.3632050  62.8371334
  70.8259678  95.6851864  70.2080202  70.3929520  96.5197659  70.3874922
  70.7375097  95.1895237  71.0221052  89.3014717  98.2079220  12.6741207
  88.8980865  98.7113953  13.3812451  89.1230679  97.2946262  12.8983951
  56.1572266 104.8846436   1.8690145  55.8897638 105.2404690   1.0216131
  55.7374048 104.0254593   1.9113000  77.4572182  79.3202877  92.7768612
  77.6031542  79.8244953  91.9764137  76.6698980  78.8067341  92.5962448
  30.0510597  19.1347611  46.1139393  30.9896851  19.2962575  46.2094879
  29.6594572  20.0077415  46.0859442   1.9461922   8.8174492   1.1918978
   2.1369480   8.6206126   2.1090126   0.9921257   8.7705970   1.1303033
   7.0892310   6.1662179  26.2791753   7.2901899   6.7467934  25.5451584
   6.1328548   6.1395723  26.3086009  23.6436796  31.5583229  23.0242062
  22.7248836  31.6330791  23.2820010  23.6216426  31.0810971  22.1947479
  29.2310786   1.5317895   0.4589852  28.7714911   1.0579672   1.1521690
  28.5608792   2.0910427   0.0661754  99.5079613  38.7829447   4.0749329
  99.4898319  39.0184426   3.1473324 100.1076221  39.4152737   4.4709057
  67.9171515  67.2868156  89.1593266  68.8605118  67.3023891  89.3207455
  67.5360298  67.0111752  89.9929905  29.5226264  31.4348316   5.8012992
  29.4401026  31.5718794   4.8575619  29.2221498  30.5366731   5.9400749
  31.1104178  60.7336426  74.4340563  31.8018818  61.3550329  74.2060566
  30.3459764  61.0352564  73.9432478  20.3159094  34.7002530  30.9507990
  21.2241387  34.9948144  30.8830810  20.3812742  33.7679863  31.1577773
   0.4324109  49.2065668  25.4767060   0.4889071  49.0085888  26.4115024
   1.3271868  49.0982008  25.1544261  98.7573719   6.7740744  11.3084984
  99.4057083   7.2975522  11.7795300  98.7468719   7.1436036  10.4255652
   0.3416245   7.7088094  68.5339880   1.1788039   8.1678808  68.6019325
  -0.1669062   8.0263466  69.2801762  53.2176065  25.8007956  59.4235659
  52.5099993  26.0937524  59.9977636  52.8638649  25.8969069  58.5393381
 102.7091217  96.2790012   5.8629841 101.9669533  96.0460567   5.3051770
 103.4756660  96.1674595   5.3006697  42.2246265  16.0713995  21.8381071
  41.7396545  16.6537130  21.2533498  42.6158142  16.6556871  22.4875808
  11.1335731  92.8343678  46.1359072  11.1230433  93.4230328  46.8906260
  11.3617241  91.9798183  46.5018511   4.3162000  66.6150236  26.7641950
   4.7243696  65.7613659  26.6196299   4.1717204  66.9634867  25.8844614
   9.5571804  42.0610285  38.8441777   9.1748852  41.2940598  39.2706060
   9.2821950  42.7992916  39.3878508  98.0405331 102.4847412  39.0818763
  98.8848209 102.2690582  39.4779611  97.4200630 101.8883514  39.5008826
 100.2068424 100.5959034  12.1121740  99.3579197 100.7973576  11.7185044
 100.8092117 101.2271404  11.7185807  21.4883447  22.9751754   7.6661831
  21.9334650  22.2410512   7.2429109  20.6353426  22.6234102   7.9208940
  59.7324753  27.5147629  87.2574520  60.3770065  27.0176935  87.7611732
  59.7447872  27.1120548  86.3891792  14.7978282  12.1020460  26.8964911
  15.5266786  12.7150297  26.9927168  15.2161884  11.2504518  26.7700195
  86.0204697  80.6647301  88.8463497  86.5295315  80.9092236  88.0734825
  85.8822250  79.7221088  88.7537384   1.3817616  33.9057827  29.5861387
   2.2738442  34.2471457  29.5237637   0.8229315  34.6768451  29.4891691
 104.5237446  19.3046677  27.2752357 104.7710991  20.0043344  27.8798151
 105.3564739  18.9717352  26.9406343 101.7271709 106.9831944  74.0361404
 100.8824825 106.6560650  73.7267494 102.3537159 106.6932964  73.3730936
   3.3270797  28.4394145  21.2903786   2.5239187  28.2927871  20.7907152
   3.9663509  28.7252045  20.6377792  39.4929934   5.3812313  13.9907622
  38.6841106   5.7034314  14.3884134  39.7905707   4.6886623  14.5807016
  19.1865695  19.1842806  11.6224670  18.7788045  19.0512276  10.7667470
  18.8902771  18.4405792  12.1472061   6.2087375  41.4760113  27.5810790
   5.3976125  41.9627523  27.7273345   5.9207433  40.6217861  27.2592306
  17.7169287  18.8493276   5.2393138  18.4558117  19.4551516   5.1822144
  17.0966768  19.1654611   4.5823669 101.0246563 100.0152111  72.9381227
 101.2097073 100.6739044  73.6075306 100.4195309 100.4487133  72.3363495
  13.1610274   2.3206015  13.3436346  13.0363345   1.4690125  13.7625384
  13.3280766   2.1131037  12.4242485  23.9699364  35.4974055  26.5704679
  24.2239237  34.5745230  26.5734816  24.7212648  35.9513497  26.1887932
  19.8703802  14.7562981  19.1272688  19.8470891  15.4247665  19.8119867
  20.7527971  14.3892682  19.1807806  15.3120887  50.4246330  40.3017473
  14.5395195  50.8206081  39.8985457  15.9013212  51.1611748  40.4646730
 111.7260170  24.6628070  25.8169341 112.2101307  25.3769207  26.2315536
 111.9067383  23.9001870  26.3664603 100.9380913  14.2134643  10.5724645
 101.1128616  13.6659944  11.3379478 100.8059025  15.0911391  10.9308565
   8.9631885   3.0807877   6.2651330   8.6324233   2.4506949   5.6249690
   9.8670405   2.8087074   6.4240515 108.3927345  48.9957952   3.3508521
 109.0202141  48.5308886   2.7973545 108.3561516  49.8784113   2.9822278
  39.2916322  19.8209190   5.0083995  38.7610888  19.0261400   5.0639099
  39.1676068  20.1294804   4.1108251   7.2376823  26.1456013  29.1151118
   7.4630696  25.5484533  29.8284459   6.4731574  25.7457542  28.7005568
  24.1034818  28.1684494  30.2658200  24.0981507  27.2171760  30.3720498
  24.3376422  28.3056355  29.3478990  93.0068111  18.5932469  29.3332934
  93.1450462  19.4629300  29.7084928  92.1937561  18.6740017  28.8346362
 101.7633438  30.4690814   8.4437037 101.5115261  31.3233876   8.7943906
 101.6139317  30.5435824   7.5011760  84.5681190   0.9677018  84.4695950
  85.2114105   0.6953864  83.8151836  84.0082169   0.2005369  84.5887852
  74.2592382 100.4557610  60.8872366  74.0509939 101.2335014  61.4049196
  74.7605467  99.8987865  61.4828014  94.1525936  16.7025137   3.0880648
  93.3529186  17.0340025   3.4965721  94.6644211  17.4872518   2.8919965
   4.8867831  19.1740692  33.3152246   3.9449319  19.2686009  33.1730556
   5.1133394  19.8931217  33.9050269   7.5681436 100.8563900  62.6103735
   8.2972491 101.4091492  62.3291302   6.9447273 101.4653683  63.0062675
  56.5091419  60.6225157  91.2209988  55.9681082  60.2234840  90.5396175
  57.2289324  61.0355949  90.7440281  16.4619303  28.8299251  37.2634101
  16.5005231  29.6042156  37.8248501  16.8919837  29.1005921  36.4522243
  49.8753548  67.4828100  87.7793598  49.2226458  67.2678089  88.4456825
  49.3802595  67.9348707  87.0961666  37.9504514  36.9682002   7.5766891
  38.8890576  37.0466161   7.7472812  37.5342202  37.3835754   8.3319694
   8.0439484  27.4388409  36.2649894   8.9660996  27.2433972  36.4313364
   8.0139828  28.3910012  36.1715961  37.3935890  32.6095390  34.5019054
  36.5150237  32.3587799  34.7873425  37.7495170  31.8177485  34.0986514
  43.2421446  26.6675615  28.8546371  43.9909124  26.3617349  28.3427286
  42.8787041  25.8730102  29.2455721 105.8586693  40.5170536  17.4121451
 106.6243744  40.9772873  17.0684779 105.1311874  40.8260965  16.8722439
  79.0477657 103.6552715  27.9904103  79.4406033 102.8518677  28.3316636
  79.7109938 104.3288517  28.1409168  63.9838505  68.4803534  92.5251675
  63.2821560  68.1977510  93.1116772  63.6167240  69.2296267  92.0560837
  16.1573291  27.4213409  28.1692982  17.0027673  27.8556681  28.0560493
  15.9641623  27.0455408  27.3104095   6.7558748  26.5569425  21.4688301
   7.1536225  27.0555282  20.7550788   6.8584287  25.6417298  21.2078714
  66.9516754  96.3010693  86.8873405  67.5509501  96.4360142  86.1532497
  67.1509552  97.0145893  87.4934864  99.1035271  43.5264969  16.3874304
  99.4007397  44.1494608  15.7242477  98.1879997  43.3580494  16.1645889
  24.8121190  61.4892960  12.5212860  24.9802661  60.8035326  11.8750012
  24.7192836  61.0196733  13.3501816   2.9320619  27.9933643   9.8687083
   3.8306144  28.1485438  10.1598346   2.5439402  27.4608493  10.5629861
   2.7929866  24.3001747  11.0158062   2.5765783  23.3970714  10.7838547
   3.7428123  24.3536186  10.9099448  91.3670063  58.3766699  89.2025471
  91.3804913  59.2300320  89.6359348  92.1578693  58.3693409  88.6633682
  10.3083980  23.5455704   1.1628477   9.8310530  23.2814670   1.9493735
  11.2280238  23.5422921   1.4283851  38.7357521  23.6023641  24.0380883
  39.6163702  23.2294941  23.9967346  38.8762927  24.5260787  24.2460108
  16.6626441  11.3289237  15.7339168  16.3129365  12.1924591  15.5142725
  17.0364726  11.4372551  16.6084146  61.4659834  72.8975201  60.4109287
  61.2141180  73.2401609  61.2684822  60.7717371  73.1926870  59.8217487
  78.0384922  12.0744693   1.5193741  77.9307222  11.5138662   2.2877108
  77.8251266  11.5080869   0.7778096  14.0557277   3.2167420  15.7216656
  13.6375546   2.6828861  16.3972116  13.5879219   2.9941216  14.9167871
  55.3488064  76.9741392  87.6957130  54.8503923  77.1561050  86.8990326
  54.7097206  76.5891790  88.2953739  11.5200996  28.8050079   9.8660308
  11.0161626  29.1245055  10.6144965  11.2184632  29.3368912   9.1295886
  13.1918669  60.4298830  34.8232055  12.4349129  60.9149647  35.1517606
  13.7376928  61.0940790  34.4023180 109.1977310   8.7690133  45.2930880
 109.3183136   9.5260125  44.7198105 108.9038754   8.0702984  44.7085524
 111.4606762  20.6366944  32.1966100 110.5928230  20.4775476  31.8254805
 111.2916088  20.8714318  33.1090474  49.5042324  24.3627024  40.7872486
  49.0259361  24.5154238  39.9723029  48.8988638  23.8564706  41.3289976
  30.6460118  69.3516064  20.1091933  31.5733290  69.3429804  20.3463435
  30.1844859  69.2766714  20.9444237  12.8513503 100.2533245  82.4783993
  12.9862857  99.9665260  83.3815956  13.2759023 101.1100292  82.4331760
  24.6217227  14.7294903  26.8460679  24.8606277  13.8458633  27.1259928
  23.7185168  14.8389685  27.1434951  36.3541031  39.7726846   8.9061368
  35.6642175  39.2652392   9.3336725  36.4977860  40.5191898   9.4877845
 109.3532848  19.3638599  36.3946986 108.6007023  19.9501312  36.3163376
 109.8504925  19.7101152  37.1357226   8.3875650  99.2733383  34.4340229
   8.5094911  99.8617458  33.6889482   7.6762646  99.6689701  34.9377704
  12.0324254  89.5749760  76.0305214  12.7264404  88.9159584  76.0142660
  12.3122895  90.2011108  76.6982555  20.9781575  26.7668605  18.0024767
  20.9022069  25.8607268  17.7035034  20.2439713  27.2186685  17.5864601
 113.0043793  90.7443810  41.6130447 112.7419376  90.7421303  42.5335598
 112.1814346  90.6743813  41.1291981  96.5791130  86.5617275   6.7935711
  97.2764206  87.2017288   6.6507787  96.9677258  85.9103680   7.3774749
   8.5635424  43.6446905  12.1686423   8.9522773  44.2429495  11.5305185
   7.6227152  43.8112688  12.1109509  35.5390477  47.6664972  34.7669601
  35.3184938  46.7714453  34.5091295  35.5198622  48.1630373  33.9488482
  37.6038814 102.1245861  89.6532345  38.4217691 101.8513775  89.2377281
  37.2885990 102.8466129  89.1096401  34.7954440  35.0577569  58.1018114
  35.5164003  34.4301891  58.1529284  35.0656390  35.7796979  58.6692858
  88.2837486   2.0262553  32.2984123  87.4512768   1.6611852  32.5983214
  88.3286190   2.8895646  32.7094054  51.2001371  61.8320322  85.1964855
  51.7570162  61.1705160  85.6069851  50.6178141  62.1236849  85.8979607
  12.6993990  42.0177984  23.5925055  12.0083547  41.9874382  24.2541456
  12.3126197  41.6002941  22.8228784  61.4540720  97.6505947  20.9496951
  60.6125689  98.0772209  20.7881546  61.6621923  97.8677940  21.8583989
  57.2149467  84.3321896  74.0552139  58.1257534  84.3218136  73.7610149
  56.7033195  84.2156219  73.2546663  36.8049455  30.6203461  13.2997704
  36.8799496  30.9017467  12.3879480  37.5394750  30.0197673  13.4262753
  16.3522792  11.9022834   6.0784554  16.0249186  11.2886953   5.4207504
  16.9899106  12.4395931   5.6083947  41.0745287  38.8222814  21.5012431
  41.5298986  38.7351727  20.6638193  41.2417793  37.9946160  21.9520521
  22.2225046  40.2877569  12.5518203  21.6517544  40.8490562  13.0766237
  22.6530266  40.8870935  11.9421673  50.0481129  21.2280798  34.7191286
  50.1501179  21.5743542  33.8326073  50.8037615  21.5688419  35.1977825
  36.3634205  20.3240418  25.7654476  36.5182829  21.1056304  25.2350044
  37.1374726  20.2567673  26.3245106  95.4821777  91.7570210  90.4417515
  96.1810970  91.3255978  90.9332943  95.7329941  91.6494274  89.5242786
  47.2399330  91.3421535  85.6784916  46.5526056  91.4974976  85.0306606
  48.0270338  91.7223930  85.2884769  92.5405598   2.2741464  49.8867083
  91.7653370   2.2058959  50.4440165  92.2865677   2.8875154  49.1971445
  21.0504007  38.0573463  36.4505959  21.5372825  38.1008768  35.6276250
  20.5032420  37.2767162  36.3641739  20.8104420  22.2885752   3.3008489
  20.9770751  22.9462099   3.9761132  21.4113140  21.5733194   3.5096404
  61.8363047  14.2129636  78.8186741  61.2110472  14.0575540  78.1107664
  62.4835014  13.5140610  78.7243271  22.9295492  35.9987569  22.4073958
  23.5997152  36.4202499  22.9454064  22.1866322  35.8805418  22.9992843
  14.4990289  22.9555964   4.4286892  15.3538108  23.0481458   4.8494202
  14.0769112  22.2369695   4.8994568  40.5350399  30.3714871  60.9929228
  41.1867142  29.7424078  61.3024569  39.8302841  29.8305488  60.6366444
  31.9427466  28.8557339   5.4560840  32.5760841  29.5644569   5.5693388
  32.3901463  28.2220578   4.8952639  28.5166430  25.0021863  18.6550272
  27.8767729  24.4976258  18.1528139  28.0674434  25.2109790  19.4740856
  61.6407108  71.8522787  69.3287706  62.2063589  72.3975754  69.8755121
  62.2219276  71.1741257  68.9844942  12.1036100  35.1959324   6.5490294
  11.5622520  34.8764777   5.8271486  12.3431277  36.0865736   6.2928593
  54.2486906  99.9433804  91.9055748  54.0661049  99.3084049  92.5981808
  55.0540161  99.6266460  91.4964867  20.1624107  12.8526127   8.7474370
  20.4767561  13.0919313   9.6192998  20.4454064  13.5732985   8.1846267
  23.1490278  46.3605642  17.0153761  23.7580967  45.6706381  16.7521918
  22.2885060  45.9419918  16.9923115  10.4826069  47.2454023  89.4423199
  11.1024034  46.6790819  88.9825821  10.8497131  47.3383284  90.3214359
  23.8633537   4.9487916  38.1766605  22.9551649   5.0293106  38.4681058
  24.2916441   4.4401276  38.8651824  99.8877716  12.0685482  53.1954908
  99.1933918  11.5457499  53.5964203  99.4254971  12.7742064  52.7431870
  17.2423303  63.4180641  46.7853117  17.0604002  62.4887943  46.6453457
  16.5995300  63.8726282  46.2408733  17.0387268   2.9334375   5.6784999
  16.7465365   3.4121925   4.9028388  17.7862704   3.4358299   6.0025567
  48.4027672  28.5450697  51.5164089  47.9377747  28.2072234  50.7509851
  49.3235922  28.5483909  51.2550640  20.5044627  63.5445356   9.1615999
  19.6224141  63.8976955   9.2777896  20.5784488  62.8610325   9.8276192
   6.7181051  11.6750908  74.0775824   5.7978731  11.6758239  73.8141394
   6.9405746  10.7485175  74.1681433  51.4256859  86.7833233   1.6359037
  51.8348122  86.6223907   0.7856394  50.7632589  87.4515915   1.4603120
  92.6847744  87.1122742   0.6331690  92.8079700  86.1824417   0.4422111
  92.4294472  87.1356201   1.5553938  64.2743778  59.2795086  21.7977071
  64.1638708  60.1488590  21.4126801  63.9125252  59.3606186  22.6801538
  49.6341038  68.7825251  25.0131869  50.5231810  68.8219833  24.6607399
  49.5222950  67.8699303  25.2794623  16.8545079  25.6786418  68.2006216
  16.1675513  25.7476664  68.8636160  17.0297897  26.5834880  67.9422379
  53.7938595  72.0023108  18.3032548  53.3694172  71.4629889  17.6360083
  54.1598511  72.7410650  17.8169191  12.6650620  10.3773165  91.1585522
  12.2319531  10.7708776  90.4010868  13.5781908  10.2798927  90.8884907
   6.3282472 105.0104046  85.2946281   6.9416702 104.6471405  85.9333611
   6.8498588 105.6340599  84.7894478  84.4146919  55.4096937  25.8994722
  84.5793056  56.2201309  26.3814664  84.8962307  54.7400904  26.3852549
  60.9745789  71.1665440  13.7175477  60.4300928  71.7311811  14.2661405
  60.6394815  70.2839327  13.8754761  73.3832502  20.5729222  80.9642696
  74.0756464  21.1209321  81.3337326  73.1284380  21.0204768  80.1574326
  73.2116365  85.2754688   8.5175240  73.1734514  85.7085609   7.6647621
  74.0522099  84.8175716   8.5161740  92.5426769  66.7437792  25.8910203
  92.2594452  67.4678516  26.4493489  93.4504128  66.9524336  25.6702971
  13.7718189  31.3302970  80.1885700  13.7481523  31.7059827  79.3084955
  14.6414971  30.9364295  80.2575493  44.0471172  21.2764907  82.4744225
  44.4550610  21.0846877  81.6300106  44.3379068  22.1638393  82.6848507
  65.1621437  15.4067063  74.8619032  64.4098568  15.7136023  75.3679800
  65.0160599  14.4659889  74.7622013  91.4297390  96.1757088  17.3400962
  91.3940239  96.4213085  18.2645619  90.5198860  95.9930897  17.1054673
  63.1478167  67.6210594  39.4457555  63.6636353  68.4038019  39.6393561
  62.2382450  67.9145670  39.4982982  93.6228275 103.2644558  80.2633381
  93.7353230 104.1422558  80.6280994  92.8705502 103.3434391  79.6767616
  73.6329174  49.2317009  22.1852040  73.7279510  48.3749485  21.7690611
  72.6869678  49.3639517  22.2478271  86.4627647  81.4960766  24.1198087
  86.8186665  82.3846340  24.1244769  86.8724155  81.0700226  24.8727322
  61.7295408  57.9867697  18.4142935  61.3485575  58.8025045  18.7393486
  61.8835783  57.4640799  19.2012477  51.3328028  76.1199331   1.1850973
  52.1219063  76.6319227   1.0078747  51.0868740  76.3603878   2.0783687
  12.8802037  28.1787014  90.7139969  12.1680677  27.7725434  90.2198982
  12.8461111  27.7578807  91.5730572  67.0645380  78.2997608  10.1618302
  68.0196905  78.2553196  10.1178324  66.8769360  79.2133617  10.3771818
  58.4895849  80.2438831   5.2479178  59.3103456  80.6454277   5.5331421
  57.8609562  80.9656429   5.2369797  13.1797898  38.7666225  42.5677967
  14.0501523  38.7213826  42.9635906  12.6548362  38.1448817  43.0718756
  73.9030600  75.8217812  36.4884901  74.1736746  76.1544561  35.6327295
  74.6536016  75.9887028  37.0586252  29.8336339   9.6927714  85.0157261
  29.6503949  10.5500185  85.4001522  30.4826427   9.3017584  85.6006527
  56.9282007  39.5712328  77.1277332  57.5081396  38.8183093  77.2417831
  57.2643852  40.0168848  76.3501644  78.5099411  82.6619530   4.5673984
  78.8179493  82.1577549   3.8143030  77.7045727  83.0799294   4.2626014
  75.5056953  50.6950521   4.9026713  74.7771978  51.1917830   5.2752131
  76.0385847  51.3515282   4.4540131   5.4756403  91.2408829  88.2791138
   5.2136439  90.5472660  87.6737309   5.7913530  91.9457054  87.7136230
 102.1431160  93.9625454  82.9662800 102.9703522  93.4838104  83.0185318
 101.8316555  94.0019321  83.8705349  91.7242908  76.5957642   5.0298685
  90.7951450  76.8160248   5.0962430  91.7842770  76.0426378   4.2509702
  50.9476185 102.7270889   3.0512226  51.3658714 103.5039139   2.6799601
  51.4727163 102.5185204   3.8238820  69.9466753  87.4257088  21.8883872
  69.5205259  86.5752697  21.7817616  70.6485844  87.2645187  22.5189209
  57.9602766  98.7840939  14.6062541  57.2837400  99.4431019  14.7619426
  57.6792955  98.0265141  15.1194394  65.8995295  47.7107430   0.8903546
  65.8538914  47.3444223   0.0072017  66.2725830  48.5837984   0.7685383
  74.6171188  76.5640211  30.5674863  74.4037390  77.4251127  30.9269619
  75.5732870  76.5254879  30.5895925  66.8843985  64.5586061   0.9881814
  67.7655315  64.7887754   1.2829013  66.4832401  64.1301107   1.7442881
  24.7844911   7.1241266  20.3341031  24.5067549   6.6929537  19.5259047
  25.5442047   6.6200578  20.6256175  88.9716721  71.7529488  29.0366745
  88.7128925  72.3205996  28.3106995  88.8019753  72.2747707  29.8209810
  92.2982883  88.9532185  22.5982571  92.7765465  89.6327782  23.0733395
  92.5798893  88.1335831  23.0046129  33.8212299  42.8517008   1.6456735
  34.3055272  43.2282209   2.3804671  32.9021263  42.9211473   1.9038565
  52.6254177  28.2139850  71.7032576  52.6619434  28.7545276  70.9141397
  52.5500345  28.8427734  72.4210119  22.7968192  16.1104047  41.4152956
  22.5076199  15.2165604  41.2318897  23.5942793  16.0025263  41.9336081
  42.6726103  26.0149574  90.0308800  42.9082632  25.1335025  89.7415066
  41.7168188  26.0029459  90.0813866  78.2889032  89.3122673  33.6992121
  77.6984787  89.8098373  33.1334758  78.1440067  89.6737576  34.5736051
  25.8121586  28.2884264  90.6079578  25.6289983  27.3991823  90.3047657
  24.9663210  28.6163354  90.9133530  18.9098620  21.8729019  75.6881571
  19.7570908  21.6623831  75.2955770  18.7869668  21.2065506  76.3642550
  91.5253162  96.6524601  40.2807140  91.2613583  97.5570202  40.1124334
  90.8806229  96.3278389  40.9093761  82.2286797  79.0508747  15.3470254
  81.5768719  79.1586733  14.6543777  82.1031857  79.8114491  15.9144819
  58.4629440  89.3154049  12.5828922  58.4904099  90.2268887  12.2919035
  59.3563938  88.9963436  12.4556732  53.7268782   4.2913717   3.4245527
  53.4815168   3.6149606   2.7932876  54.5525694   3.9826512   3.7975925
  73.9969540  73.7539482  16.6084468  74.0637016  73.8492346  17.5585508
  74.0416050  72.8095865  16.4587164  71.4790916  79.0548372  24.5344090
  72.0591116  79.7406244  24.8653245  70.7120180  79.5261621  24.2093301
  55.8369446  67.4560118  59.8553324  55.4096889  66.9382238  60.5376673
  56.4894724  66.8650818  59.4795084  33.8873982   3.3483639  83.6124039
  33.4551001   3.5685694  82.7872562  33.6046696   2.4532109  83.7994766
  22.6080728  15.8594489  79.0613413  22.1344113  16.4747000  79.6211147
  22.1022201  15.0486028  79.1149569 105.3715992   9.5363688  17.0788991
 105.9957981   8.8146192  17.1543312 105.0384140   9.6587747  17.9678524
  61.1383533  72.8413200   2.0587009  61.5168285  72.6655054   2.9201406
  60.4751301  72.1605539   1.9450115  64.7021437  76.4468908  27.5243855
  64.3047333  76.6154432  26.6700506  65.6355572  76.3449621  27.3384285
  58.4241104 105.1597309   9.3484163  58.7335825 105.1092911   8.4440297
  57.4696970 105.1541138   9.2756361  77.1181965  32.7721381  76.9660997
  76.2293959  32.7141428  76.6155148  77.1478987  32.1078515  77.6546240
 110.8317184  23.4899831  62.5435019 110.2811050  23.1572962  61.8347168
 111.1748505  22.7043033  62.9691744  61.2385559  27.9141521  68.8338709
  61.0929966  28.8121438  68.5361147  61.8179417  27.5338459  68.1736374
  45.6601334  38.6258268  82.2782135  44.9852943  37.9597092  82.4090195
  45.8123112  38.9872956  83.1513786  74.0595913  95.8600044  12.1776068
  73.2323980  96.0337353  11.7283916  74.4284058  95.1061440  11.7172658
  81.1200619  80.4795742   4.6872494  81.2111473  80.3325081   3.7458113
  80.2982712  80.0468540   4.9188671  51.9045591   6.1295408  81.7638969
  52.0837069   5.8324963  82.6560307  50.9796429   6.3757980  81.7746353
  37.7672958  32.3634887  91.7642498  38.3800316  31.7313647  91.3884735
  38.0043578  32.4052215  92.6906872 113.0722618  88.9947605   1.8034752
 112.7980042  88.0782413   1.7719169 112.8996468  89.3268967   0.9224953
  63.9614105  31.3663793  87.1765900  64.0136051  30.6047750  87.7540493
  63.3618021  31.0983467  86.4802647   0.7567584  13.0425596  63.9888954
   1.4082402  12.4087000  64.2889357   0.0046653  12.9037106  64.5644903
 107.9219151  74.2874861  66.1207724 107.9853916  73.6401987  65.4184771
 107.5517464  75.0629520  65.6990385  24.7294044  44.5311642  58.9702272
  25.2365351  43.8776827  59.4519043  24.1786242  44.9445820  59.6350288
  73.1152916  62.2645283   1.1150789  74.0576029  62.3836279   1.2338170
  72.8195524  63.0809689   0.7123384  70.5911541  33.5959411  79.2928791
  70.1821756  33.3188462  80.1127434  71.1648989  34.3197799  79.5440912
  72.4739075  76.5311337   7.7630699  71.5676260  76.5343380   7.4550587
  72.8661013  75.7643223   7.3454404  73.6633015  54.4837475   6.7098331
  74.0146732  54.9353123   7.4772048  73.3425665  55.1863956   6.1444569
 108.3147144  17.0755816   3.8370931 109.1440392  17.5097871   3.6373058
 108.1036282  16.5851927   3.0426162  84.4321346  67.2262716  28.2776833
  85.1937580  67.7419662  28.0126810  84.7874546  66.5581512  28.8638520
  23.3785081  47.8468752  72.2872114  23.4192157  47.7853537  71.3328600
  22.9849482  48.7030458  72.4554634 109.3623161 102.2297955  64.8748541
 109.3307686 102.0464420  63.9359093 109.2167473 101.3796520  65.2899313
  91.3719082  99.7827339  15.6139874  91.5535164  99.6642017  14.6816790
  92.2208118  99.6648407  16.0402465 109.3397331  75.9317303   9.3992901
 109.7536373  76.2380075   8.5923779 108.4056377  76.0920906   9.2651379
  22.8494215  45.4096460  88.2490349  23.7987757  45.3736877  88.3659172
  22.6435971  46.3444567  88.2469177  31.8965912  86.7677879  19.2871797
  31.3349199  87.1049595  19.9850869  31.3413048  86.7765522  18.5075569
  89.3733692   4.6720940  17.8210819  90.0884533   4.0375459  17.8682661
  88.6139965   4.2033875  18.1673598  67.2295523  22.4674726  79.7640181
  68.0290318  22.9190373  80.0344944  67.5346088  21.6330361  79.4078064
  19.8372376   3.2415465  22.1847868  18.9109373   3.4787372  22.1407533
  20.3023982   4.0564555  21.9956279  21.9366837  12.5194466  18.6937809
  21.9022155  12.9131806  17.8219914  22.1070147  11.5916944  18.5310149
  23.2987213  48.2336283  69.6001816  24.1847062  48.2613087  69.2389393
  22.9553318  49.1160870  69.4602442  57.1866941  33.2820868  80.5497456
  57.5717402  32.5371289  81.0112762  56.2419033  33.1547284  80.6356621
  42.2702742  52.5568247  86.1869240  41.5951443  52.0587111  86.6477013
  42.1896839  52.2815514  85.2737045 103.5198784  53.8036060  47.7400589
 103.5017300  54.1832495  48.6185694 102.6363754  53.9447165  47.3998594
  77.4040174  75.7652044  21.2697148  77.6713753  76.6783524  21.1652899
  78.0487347  75.3942728  21.8721938  40.3216982  45.2142763  92.9498768
  39.9697089  45.2561855  92.0607281  40.0562286  46.0414457  93.3518028
 111.7853451  52.3803854   6.7553377 112.2146416  52.3967886   7.6107115
 112.1109581  51.5822411   6.3392007  72.2665071  99.9761963   8.6421442
  73.0046368  99.4130325   8.8750434  71.6090059  99.7997952   9.3150580
   2.3285352 103.2992458  83.0118084   3.2719713 103.2824612  83.1726742
   1.9954306 103.9681625  83.6099911   9.8071450  30.6231666  77.8740168
   9.2689633  30.2013159  77.2042131   9.4752693  31.5199041  77.9181767
  81.9191074 101.5401173  23.2169151  82.4256992 100.8213520  23.5950351
  82.4966049 102.3006535  23.2825708  78.1474590  99.2412281  29.7476673
  78.7995911  98.6554909  30.1321888  78.1531048  99.0265656  28.8148642
  81.4953136  81.7980385  21.8262768  82.0690632  82.2979832  22.4068904
  80.6327057  81.8516159  22.2376919  74.2805767  16.1018240  88.7357235
  74.2056942  17.0543826  88.7927818  74.2272329  15.9130704  87.7988434
  65.3164768  71.2903404  30.9919620  66.0531616  71.8725157  31.1779761
  64.7535610  71.7961311  30.4058385   5.6174940  21.3002419  10.4776132
   4.6773091  21.2201309  10.3167820   5.9294981  21.8856716   9.7875726
  58.9383650  96.5047264  40.2581739  58.9475536  97.3521519  39.8131704
  59.5714092  95.9736252  39.7750497  65.9968710  20.8657050  55.9342718
  66.3562393  20.8832169  55.0472641  65.0959396  20.5625629  55.8217478
 111.8682861  27.1701813  31.9991231 111.7487621  27.2081923  31.0501742
 112.7960587  27.3648858  32.1316624  77.3088598  58.0834913  22.0221519
  76.9412518  57.4334288  22.6209116  76.5881872  58.6913729  21.8567729
  96.1939716  68.9535427  27.0974684  95.7536316  68.2481861  26.6233373
  96.7209053  69.3966246  26.4324522  17.5305450  33.9151645  88.3839035
  17.1115506  34.6783161  88.7817383  17.0462143  33.1669164  88.7328720
  35.7130599   1.1778259  10.8503306  36.4020967   1.6703686  10.4043925
  35.0091934   1.1126810  10.2049148  10.8836019   3.6469287  10.3243327
  10.5510771   4.4137663   9.8578364  11.6030467   3.9845091  10.8578777
  30.1421857  35.7206655  89.9368095  29.4468522  35.5641389  89.2978764
  30.9252048  35.3432798  89.5359516 110.8810139  47.0116091  55.8064222
 111.1708736  47.4542427  55.0087452 110.0403023  47.4191952  56.0145140
 113.1785583  59.2866945   0.7997794 113.8105392  59.5611620   1.4642301
 113.7163067  58.9666462   0.0754694  33.9463782  35.6535554  80.0921535
  33.4947610  36.4893842  79.9752617  33.4643888  35.0411153  79.5364237
  31.7056060  65.8246183  91.4356899  31.2756419  65.0248957  91.1326885
  31.3894367  65.9418726  92.3315239  61.8180656  20.3200126  92.1117973
  62.3746252  19.9347055  91.4350319  61.0282230  20.5934691  91.6453171
  20.4409790  43.0554724  72.4221611  21.1766219  43.6669922  72.4554253
  19.7087634  43.5407209  72.8024626  43.9282942  37.3500705  87.0349503
  44.1854954  36.6277742  87.6079845  43.0609417  37.6069236  87.3479271
  80.0046349  22.7202153  92.8871632  80.4464817  23.1611753  92.1615219
  79.1061926  22.5966477  92.5809479  48.3965158  98.3499718   0.6935017
  49.1339350  98.4082985   0.0860137  48.7862158  98.4865093   1.5570542
  71.5818596  72.0656490  28.8443828  70.8388710  72.2036505  28.2568812
  72.2532368  72.6698494  28.5274816  76.2642288  76.5262413  53.0968380
  75.5956936  77.1595335  52.8356171  75.7684278  75.7614660  53.3893013
  71.1898327  69.4235229  16.2276149  70.8074331  69.9171686  15.5021393
  70.6648731  68.6246252  16.2767375  84.0142918  72.1491766  26.5402508
  84.5899868  72.7249718  27.0435095  84.2797184  72.2811317  25.6301022
  62.1315432  92.6523781  19.2345202  62.5452757  91.9871712  19.7845721
  61.7056179  93.2445908  19.8542833  47.1544504  80.0589752  10.5457759
  46.6049194  80.8425331  10.5627298  46.7511749  79.4978952   9.8833632
  21.8076396  55.1333189  78.7755632  21.2391806  54.6690226  79.3899870
  22.6916003  54.8438644  79.0015268  55.0869274 102.6427460  16.8405938
  54.1383505 102.7204037  16.9425476  55.3216219 103.3484268  16.2379706
  87.8279972  83.2709122  15.8974588  86.9770908  83.1927967  15.4660785
  88.4594917  83.2968998  15.1785851  97.3110580  60.6044960   1.1395942
  96.6064262  60.4140711   0.5203551  96.8868923  61.1001062   1.8400800
  48.8520575  29.7632480  85.0764179  49.7338247  29.5466709  84.7734070
  48.2819796  29.1502476  84.6122265   6.4829183  10.1194906   8.6343664
   7.1420538  10.0043643   9.3188500   6.9792521  10.4153013   7.8712273
  57.5452042  82.5680733  29.1286659  57.4704218  82.4763012  28.1788158
  57.0883989  83.3855247  29.3270159 109.5016003   2.6242712   7.3295212
 109.6924114   2.7654731   6.4022213 109.8151302   3.4184504   7.7622014
  15.3327501  34.9820089  72.6224518  15.6115842  34.1479635  72.2444963
  14.5364988  35.2084589  72.1418905 107.0280838  79.6147776  13.5550928
 107.7187729  79.5395851  14.2135203 106.7444038  78.7135601  13.4015524
 111.3208961  88.0372047  84.3199348 110.7675266  88.1198025  85.0965786
 111.3360023  87.0980835  84.1353798  59.6598673  45.8172131   0.5260058
  59.6299458  45.9759235  -0.4174700  59.0055037  45.1346731   0.6749367
   0.9213690  23.5657907  26.8065858   1.1154696  22.8462458  27.4072647
   0.3886523  24.1711974  27.3222661  24.2131567  72.2173357  67.6479197
  23.3933735  71.7966557  67.9071712  24.6285605  71.5888834  67.0573950
  80.8722973  64.9193573  33.5114217  80.8901978  64.4040823  34.3178964
  80.9268856  65.8282518  33.8066506  30.8469033  25.0198841  75.7424784
  30.9751153  24.1705561  75.3200626  31.1438990  24.8869348  76.6426754
   3.8934839   9.0113866   7.1776730   4.7161222   9.2785174   7.5877202
   3.8812485   8.0581743   7.2640955  28.6404815  19.5408158  92.1152886
  29.1983333  19.1821007  91.4251003  28.7814918  18.9602665  92.8631612
  22.6229262  46.4649582  67.0342779  23.1520891  46.9340563  67.6793861
  22.5459743  45.5783415  67.3867273  96.5812397  13.9913476  91.7694378
  96.1775398  14.8296404  91.5446568  97.4848175  14.2132723  91.9942188
  60.5525541  42.6356936  85.2737141  61.2655115  42.6900005  84.6373367
  60.0632286  41.8534422  85.0190067  45.5332518  85.2015209  17.8007376
  45.7766485  84.3387604  17.4651301  45.0578213  85.0179482  18.6109841
  64.4571352  91.0555840  48.8401794  63.5672569  90.7217407  48.7266302
  65.0206518  90.3417873  48.5415411   2.7751324  71.6373777  23.2344222
   2.6150393  71.0477161  22.4976039   2.7588257  71.0687017  24.0042114
  59.0404606  16.5550816  83.9474773  59.2254019  16.7848051  83.0368423
  59.6863890  15.8815682  84.1605186  65.5900812  18.6855733  85.8585644
  65.9378481  19.4665527  86.2890911  65.3956652  18.0828941  86.5763474
  20.7951522  16.8937898  77.0307159  20.7835698  16.4763272  76.1694241
  21.6616058  16.6911614  77.3834610  51.8706274  37.1431112  82.2882557
  52.1249151  37.9118037  82.7988243  51.0353041  37.3863125  81.8890953
  29.1936851  46.8232775  82.9819775  28.6981344  46.5690708  82.2034931
  30.1102304  46.7638493  82.7124500  85.0884724  86.9118595  23.9255500
  84.8089600  86.4368534  23.1429410  85.9652138  86.5748692  24.1099072
   8.7469661  32.5598526  81.1264515   9.6663499  32.6900315  80.8940315
   8.3243811  33.3899999  80.9062099  80.6585217  86.3760376  35.5653381
  79.9832487  86.2409687  36.2301683  81.1789799  87.1073914  35.8977056
  33.5560656   1.5177575  91.1070156  34.2735171   1.4106166  90.4825020
  33.6227942   2.4283040  91.3945580  94.1429329  16.0469353  15.3412628
  94.7723484  15.3259587  15.3574491  93.5611153  15.8736050  16.0813105
  94.9341869   5.0110453   6.7100394  94.9067020   4.2870140   6.0845357
  95.8191967   4.9801853   7.0733935 109.6318626  96.0537338  11.2120259
 109.9237061  95.8437061  10.3249240 109.4286728  96.9886494  11.1822701
  22.7276444  41.3128853  72.9053736  21.8819547  41.6061544  73.2445335
  23.3249211  41.3934803  73.6490107  52.9340744  39.4440937  83.5639286
  52.6771116  40.0883484  82.9042816  53.8352919  39.6765947  83.7874889
  93.6882210  68.9213848   6.9260198  93.1490803  68.3281565   7.4491233
  93.9205456  69.6279764   7.5285071  88.7961674  93.1406593  17.4652100
  88.8077450  93.8023376  16.7736375  89.1119576  92.3436451  17.0394409
  88.3645535  95.0012016  15.6914866  89.0515327  94.8260021  15.0483680
  87.5842571  95.1784325  15.1661766  48.4851885   6.4533508  79.9763775
  47.8106022   6.3635808  80.6495094  48.2432842   5.8123952  79.3078804
  76.8906212  90.6262589  14.2675149  77.2252750  90.2656555  15.0886118
  76.9477129  91.5749168  14.3816590  64.1163683  12.5542176  72.6374102
  64.1976500  12.1830618  71.7588520  63.1764603  12.6942682  72.7522421
  36.6589379  55.6529713  78.0703688  36.7326164  55.7135010  77.1179342
  37.1421623  56.4120722  78.3967018  92.4590588  64.7705793  47.0837402
  91.8245602  64.8256016  46.3691664  92.1514416  65.4092789  47.7269077
  61.9805622 101.3721657  73.9233208  62.1181917 102.0691967  73.2818842
  61.5178490 100.6886196  73.4386587  78.4009981  53.7895775  15.5475867
  78.3634996  54.7166061  15.3121173  77.8971529  53.3482075  14.8638034
  42.2255850  50.9789896  91.5597630  41.3252020  51.0147238  91.2368584
  42.3339796  50.0792646  91.8679428  53.2075882   3.5935768  91.7760372
  52.4898100   4.1780776  91.5323544  53.2680082   2.9728156  91.0499287
  21.2868953  17.3399341  80.9401512  21.4110565  17.8706789  81.7269897
  20.5069304  16.8166840  81.1248016  80.0250435  92.9524422  14.9508214
  80.9178734  92.6351452  15.0865161  79.9524307  93.0653572  14.0030825
  59.2982721  38.2006121  78.2178831  59.8413706  37.5739360  78.6959553
  59.8677444  38.5293078  77.5222588  19.3566048  11.0033810  91.3335133
  20.0531411  10.3645933  91.4852333  18.7943125  10.9323692  92.1048832
  51.4173508  21.3436937  89.4053078  50.5203772  21.6206288  89.2182827
  51.9480276  22.1229601  89.2399025  53.1891632  77.2748756  20.3887701
  52.6709032  77.3924398  19.5926452  53.5919523  78.1297922  20.5407834
 113.9895439  83.9728451  33.9839458 113.6441135  83.1696796  34.3736076
 113.3053684  84.6252728  34.1338706 103.8672256   6.0439342  14.0349257
 104.6681595   5.8343822  13.5544789 103.6907101   6.9594896  13.8185203
   9.6248484  22.9271698  92.0071983   9.0638000  23.0701303  91.2449551
   9.0154260  22.7431035  92.7220058  65.3141069   7.2764224  58.7512207
  64.5259953   6.7759579  58.9625120  65.6114864   6.9139093  57.9167271
  89.2597008  97.2059631  30.2644229  89.8126316  97.3076439  31.0391212
  88.7180901  96.4402199  30.4555583  11.7200303   4.4020599   4.0876198
  12.5040424   3.8710427   4.2275402  11.5205705   4.7665295   4.9499479
 101.3310528  79.8920202  22.8126550 102.0834541  79.6385002  22.2780108
 101.1580753  79.1267109  23.3609366  71.0037088  70.3379726  13.7263954
  70.7070589  69.6069860  13.1842732  71.4287806  70.9354258  13.1110966
  92.1302319  84.9069023  38.2852006  92.2072220  84.3124866  37.5388956
  92.5146389  84.4238949  39.0167546  67.6802444  25.0623274  54.1607475
  66.9984818  24.5949912  54.6434784  67.7123165  24.6264601  53.3091450
  87.4590588  21.0944724  52.9441166  87.7988243  21.6792655  53.6214685
  87.4645233  20.2280450  53.3509350  55.2404070  45.1309013  75.6905127
  54.8277235  45.9935093  75.7333565  54.9435425  44.6837330  76.4830685
  44.3433857  87.1471119  24.6528673  44.6908903  87.8651142  24.1237712
  45.0227642  86.9804764  25.3062510  44.0930462  37.4458647  84.4582176
  44.1015291  37.1824384  85.3784084  43.3248091  38.0112004  84.3779945
  59.6230268  92.5504494   1.5035415  59.3708229  91.6664696   1.2366907
  59.5124626  93.0797768   0.7137180 113.4739017  95.0109673  21.5526557
 114.3140984  95.3905773  21.2953663 113.3489609  95.2968884  22.4575734
  46.5641594  66.0931206  18.7540460  46.3261127  66.9727230  18.4610116
  46.5655565  66.1511564  19.7094834  56.1071777   0.7790527  64.8404121
  55.8473539   0.5118766  65.7220840  55.6626463   1.6155341  64.7028637
 109.5471191  92.3921776  16.3800454 110.0170135  93.2014084  16.1785769
 110.0072670  92.0302200  17.1373343  60.8583021  57.3246241   0.3993059
  61.2235689  57.5542974  -0.4551329  60.8266163  58.1535625   0.8768919
  79.3401957  61.0359716  12.2402763  80.0085545  60.5077934  11.8037450
  79.2320633  61.8006229  11.6747200  48.9023829  81.0219288  23.9779353
  49.4676304  81.6732788  23.5626292  48.0130816  81.3151169  23.7794113
  39.1041422  64.4503260   9.5087588  39.1470933  63.9573860  10.3281474
  39.5576215  65.2714968   9.6992046  68.0722618  97.0173550   8.5486478
  68.4012842  97.8220177   8.1480354  67.1964693  96.9063282   8.1786460
  22.3283648  44.6355581  64.0306807  21.8253803  44.0331316  64.5787048
  23.0773759  44.8836946  64.5725679  58.7013054  79.3880320  27.3591471
  58.7260818  79.4244957  26.4029622  59.4149446  78.7952232  27.5947976
  22.3818469  14.6998847  28.3657169  22.6943278  14.2309618  29.1394734
  22.4860263  15.6250620  28.5880375  26.9497180  38.8782454  77.2885132
  27.6296115  39.1342974  76.6652870  26.1421251  39.2406487  76.9242477
  38.0483031  39.2257309  71.4866304  38.8119578  39.1513276  70.9143305
  38.2300615  38.6234522  72.2080564  38.3203554  17.3836148  90.3136730
  38.7640810  18.1644845  89.9826431  37.7958894  17.6998901  91.0492992
  51.8447733  67.2441483  24.1944003  51.9047499  66.7338753  25.0020218
  52.6600409  67.0544195  23.7301040  66.0394287  96.0732174   7.0693058
  65.8856916  95.9560966   6.1318201  66.2438345  95.1948261   7.3900688
  12.3816800  26.2622952  20.8941531  13.1477141  26.6449475  21.3219404
  12.5850475  25.3292441  20.8286667   7.0401657   7.1208882  76.6353703
   6.2819332   6.6379857  76.9641876   7.1460330   7.8475195  77.2493982
  50.5273533  40.4601622  54.9110699  50.5756474  39.9628782  54.0946102
  51.1807442  41.1521864  54.8090219  18.2691491  99.0489960  83.9495373
  17.6474297  98.8262653  83.2566547  17.8887510  98.6720657  84.7429085
  78.2795620  79.4972229   5.3413504  78.6418247  78.7456560   4.8721516
  77.5143766  79.7545242   4.8270336  50.2736187  27.0341182  81.2521267
  50.0134373  26.1654782  80.9455299  49.4704294  27.5531721  81.2109184
  72.2687864  79.2813110  34.7726035  72.2003222  80.1540470  34.3854666
  73.1844568  79.0335989  34.6444416  51.6096497  35.4353595  90.9184170
  51.5685081  36.2676597  90.4474449  50.8841038  35.4765701  91.5414047
  35.6500649 107.2462845  34.7105074  35.4973102 106.5911674  34.0295434
  35.0645804 106.9915104  35.4236221  20.1292396  64.2932558  61.3222027
  19.9323559  65.2278566  61.2590408  20.8203053  64.2381334  61.9822168
  11.9772637  39.4988513  52.1220827  11.1131310  39.4198251  52.5261402
  11.8767214  39.0941262  51.2605047  44.3055630  69.3263006  20.7500196
  45.2160931  69.2143965  21.0232329  43.9748907  68.4339094  20.6473970
  38.3476138  68.1894827   3.2796705  39.0356517  68.8311005   3.4561968
  38.3014226  68.1444550   2.3246470  63.3437061 101.3296223  20.1728177
  63.3879423 101.7361641  21.0382652  62.4078989 101.2854099  19.9765110
  70.8734465  30.7636690  78.8102818  70.1425934  30.2085686  78.5383558
  70.5862808  31.6540146  78.6076736  31.0411024  63.1393099  64.5286751
  30.1648664  63.1380367  64.1433907  31.4546037  62.3469925  64.1859150
   0.3315049 100.7369900  43.6350012   0.3240504 100.3943825  44.5287561
   0.0312035 101.6416168  43.7227535  76.2653494  68.1202793  16.7958784
  76.8652678  67.4058580  17.0101964  75.5659199  68.0487061  17.4454224
  85.7887363  76.5728807  23.9057660  85.6198978  76.2256527  23.0298901
  86.7272377  76.7610502  23.9120102  59.4219971  44.1221380   5.8456337
  59.2259026  43.2886553   5.4177493  59.8833942  43.8769197   6.6476405
   8.4484947  13.5437024   1.5159343   8.8858795  12.8057814   1.9406681
   7.7425528  13.7818611   2.1168983   6.6881460  11.0952985  58.5268879
   6.4289498  10.7380664  59.3762589   7.6435924  11.0374534  58.5242081
  97.1338654   4.3773761  86.9252777  97.3824406   5.2646768  86.6661644
  97.7906799   4.1244271  87.5739956  79.4012308 106.5640450  14.6957994
  80.2808189 106.6174316  15.0695729  79.0458441 105.7429600  15.0360334
 110.6324673  62.8647184   6.7766154 110.4302979  62.7370834   5.8497572
 109.7775936  62.9499483   7.1987051  80.9175014  23.9012456  71.1115074
  80.6348228  24.8123288  71.1905909  81.3969803  23.8702321  70.2836370
   9.7571689   0.2760938   5.2063900   9.4681144  -0.6249347   5.3507054
   9.0275156   0.6909073   4.7462076  23.2789993  13.9315522  30.8312583
  22.5750375  13.7411165  31.4512610  23.7726235  14.6423721  31.2402868
  83.7514114  16.1719084   4.8799849  83.8097477  15.3733051   4.3555215
  83.8407803  16.8825436   4.2449710  83.5739422 106.3158607   0.2707068
  84.3872070 106.7975426   0.1196427  83.8582039 105.4633045   0.6002380
  95.8450890  94.2599010   6.5460575  95.6772900  95.0909233   6.1016721
  95.7341576  94.4587803   7.4757725  19.6495807  21.9536233  65.4388237
  20.0152612  22.3665738  66.2211180  18.7016451  22.0212364  65.5531836
  77.9162979  91.0191727   8.8365036  77.3718166  90.9053135   9.6154833
  78.4663248  90.2361584   8.8121933  64.7425842  26.0721111  74.6101141
  64.1825390  25.3520393  74.3201542  65.4155540  25.6515551  75.1453495
  77.6823854  96.2474251   3.2622433  77.0683479  95.6727219   3.7193021
  77.5979185  96.0035324   2.3404983  62.6294565  61.0340691  29.4778037
  63.2958126  60.5446768  28.9954138  61.8264055  60.5271196  29.3580627
  78.5347176  94.9774837  24.4352412  78.4445286  95.5562401  25.1923013
  78.3045530  94.1100407  24.7681260  39.1514897  37.4012399  73.1272697
  40.0713110  37.2144604  72.9394579  38.7027860  36.5689874  72.9780912
  37.9146385  78.2429695  24.9141884  37.3649788  78.9316130  25.2881908
  38.5672760  78.7128973  24.3950891  62.7882004  90.8549023  11.6729867
  63.2860422  91.5148830  12.1554828  63.3228779  90.0629616  11.7294037
  66.2829876  84.3117142   4.0044448  65.8317327  83.4754944   3.8889828
  66.0437393  84.8218346   3.2306382  24.6937847  54.6695614  83.2605743
  24.8941422  55.5043936  82.8373241  25.2014852  54.0239000  82.7690601
  78.1064606  98.5140991  22.6764679  78.6653614  98.8094044  21.9576788
  78.6789846  97.9697418  23.2169533  56.8739796  46.4010429  91.0901928
  56.9802666  45.4814482  90.8467102  56.5980721  46.3758659  92.0064163
  88.2683754 105.3834724  16.6542828  87.5303078 105.9584332  16.4520311
  88.4084797 105.4953289  17.5945425  41.8923807  44.0145922   1.7181502
  42.1875429  43.2431746   1.2343831  42.6053953  44.6457338   1.6206633
  50.0368357  42.4478149  72.3513269  50.8071518  41.9401264  72.0961905
  50.0665951  43.2249689  71.7933226 103.9756775  48.6738539   4.4201913
 103.1931400  49.1369724   4.1212115 104.5392799  48.6323929   3.6476237
   0.5383835 100.6999111  40.2897215   0.7421147 101.3393784  40.9722233
   0.3426877  99.8938656  40.7674456  35.0087976  31.9675708  71.2990046
  34.6556783  31.7624807  72.1647263  34.3042374  31.7391062  70.6926775
  82.4851322  99.3168545  12.3704338  81.6195011  99.3864250  12.7730083
  83.0786133  99.1582108  13.1044936  46.1122179  28.4561038  75.8036327
  45.8042049  28.7691140  76.6541576  47.0404911  28.6888647  75.7845879
  46.8487740  30.7265902  69.4770670  46.3209820  29.9616003  69.7061062
  46.4189434  31.0912037  68.7034130  37.0198631  79.7834635   6.9086242
  36.5680242  80.3768063   7.5086397  37.9243302  79.7693205   7.2216260
  86.8201351  59.8100948  26.3176370  87.1490574  60.3313112  25.5852604
  87.4904346  59.8991966  26.9951296  61.5213299  81.8967152   5.4411632
  62.0023394  81.2823486   4.8867118  60.8908033  82.3090839   4.8507187
   5.1134729  79.8028231   3.8344824   4.5648748  79.2543316   3.2737458
   5.9080577  79.2867804   3.9707336  80.6665421   7.8607839   7.2191405
  79.7423553   8.0965173   7.3000395  80.7298183   6.9966805   7.6260221
  14.3355405  14.0905643   1.6740189  13.9213920  14.7744095   2.2003925
  13.7222540  13.9371169   0.9552941  80.2317715  87.7823448  13.8587570
  79.5401812  87.8373146  14.5182335  81.0247612  88.0556679  14.3199432
  79.6518278 106.1347675  44.2750502  80.1456928 105.6750488  43.5960865
  80.0223160 105.8159733  45.0980520  69.1584682  99.4004917   2.8724939
  68.7627363  98.6624241   2.4089341  69.9458313  99.0353870   3.2762155
  30.6087637  25.0987673  86.6002464  30.1800537  25.8581519  86.9949245
  30.0607061  24.8790169  85.8468723 101.4888287  41.7799187  92.1379280
 101.3887882  42.4443579  91.4562035 100.7062531  41.2346172  92.0575905
  17.3372161  57.1575308  66.7035294  17.8018939  57.9781675  66.8674040
  17.1146452  57.1899843  65.7731295  56.0244846  93.5784721  11.2413061
  55.3360176  93.5495090  11.9056892  56.8399668  93.5982609  11.7421389
  72.4339008  32.9188848  84.7646999  73.0494690  33.1142330  84.0581989
  72.8106976  32.1583223  85.2072048  23.3281231  31.4492846  88.7979507
  23.9718175  32.0840073  89.1126251  22.4812555  31.8559241  88.9815044
  79.0894175  67.9472876  24.2321086  78.6656713  67.6931858  25.0519276
  78.3696175  68.0330753  23.6070013  90.4662704  53.1534290  76.7205286
  91.3218880  52.9284286  76.3551235  89.9682713  52.3367596  76.6847277
  44.6090508  43.3634758  78.1995487  43.7373161  43.5589314  78.5432148
  44.4906282  42.5639296  77.6867819  69.2315578  36.5671587  82.7354622
  69.4748974  37.0660663  83.5152817  70.0643826  36.2563944  82.3804092
  65.0524044  59.3342304  17.6904380  65.1926756  59.5231438  16.7626095
  64.1005611  59.3152094  17.7897561  61.6886950  93.3198261  29.9167752
  62.2322845  94.1076756  29.9110079  60.8907938  93.5759640  29.4541979
  39.5569897  42.1118021  79.2600870  39.7038507  42.1333408  80.2057076
  40.3080654  41.6312742  78.9119387  81.4062405  86.1666870  50.1678133
  80.4994202  86.3241673  50.4307032  81.5673542  85.2520084  50.3994083
  45.9039688  35.5730462  91.6401482  46.4897299  36.2120938  92.0460224
  45.2319336  35.4099512  92.3019600  37.8676820  40.4052496  89.3821430
  37.9174733  40.3947401  88.4262943  36.9462514  40.5816793  89.5720482
 110.0969505   1.9699197   1.6800728 110.6784821   2.5093210   1.1442591
 110.6426620   1.6844480   2.4128355  97.1811581  69.0535307  10.3722119
  96.5960693  69.4332266   9.7166693  96.5980148  68.7589073  11.0717607
  21.1306357   1.4467317  10.4150689  20.4380202   0.8267135  10.6433070
  21.1023641   1.4963469   9.4595736  59.7549248  61.7201805  85.9716988
  60.3030539  61.3979864  85.2561760  60.2286291  62.4784470  86.3135624
  96.1641216 105.1325321  14.7987545  96.5757656 105.9295654  15.1326966
  95.2898788 105.1330948  15.1885498  97.9223537 100.1694775   1.2247024
  97.3606300  99.4179344   1.4141095  98.4296131  99.9022198   0.4582227
  51.8231773  30.3484583  86.7205811  51.6075754  30.1809359  85.8031464
  50.9995556  30.2122283  87.1889019  54.5409298  70.5081654  11.4904654
  54.6229267  69.9101591  10.7475698  53.6918068  70.2945948  11.8772626
  81.5294647  81.7234421  16.3898444  80.9896278  82.3290062  16.8978810
  81.4578247  82.0372581  15.4883909  16.9871950   7.3080361  17.4528778
  17.3560977   7.3245561  18.3359802  17.6873934   6.9495785  16.9074774
  81.4711952  33.8471079  77.7068090  80.5856991  34.1643190  77.5292826
  81.7478943  33.4379315  76.8869066  31.0905194  16.1878252  78.7962627
  31.7128611  16.0720587  79.5142603  30.4760456  15.4602003  78.8922501
  50.1257038  52.4289131  85.4646111  49.2728519  52.0981932  85.1826572
  50.3509045  53.0950546  84.8151684  21.2332916 100.3427982   4.6374717
  21.4882851 100.3860092   3.7158734  21.7879486 100.9919453   5.0701392
  16.2429321  90.8491325  24.5576859  16.3099527  91.7911243  24.4015098
  16.8905830  90.4620171  23.9686823  11.9954419   6.3518345  21.9820571
  12.7645671   6.4349699  22.5457668  11.2522459   6.3861483  22.5843143
  24.8225284   6.6584432  15.8184576  25.4482412   7.3824567  15.8412838
  24.1925764   6.9075340  15.1421845 103.4310532  84.6572304  15.9495890
 103.0933857  85.3895855  16.4652252 102.7903938  83.9578629  16.0787475
   5.4266244   7.7437335   1.7348766   5.7599503   6.9336343   2.1207064
   4.7085243   7.4614686   1.1684049  27.1201801  27.7347088  83.6134052
  26.7204857  26.8701649  83.7084866  28.0581212  27.5582218  83.5402870
 109.6316910  12.2554028  19.4413400 108.8405800  11.9972050  19.9143267
 109.8113441  11.5199351  18.8556433  80.2312183  79.7733927  69.8461771
  80.3639412  80.4907036  70.4659271  79.4361353  79.3367815  70.1518679
  44.9188375  43.3675432  61.0830259  45.7314157  43.4768867  60.5890703
  44.9270535  42.4506378  61.3577032  78.2274675  79.2529726  40.7443428
  78.3385181  78.3086109  40.6344223  78.6335611  79.4451141  41.5895653
  95.9909153  61.6427326   6.0247523  95.5985737  62.3438358   6.5450871
  96.7054176  62.0677042   5.5502814 110.0177574  12.7296352  10.1177299
 110.9673786  12.6390576  10.1966810 109.8177910  12.4004424   9.2414439
  43.1011772  26.2354374  85.7214069  43.7627268  25.5500102  85.6277466
  43.5788918  26.9814348  86.0840416  83.0528164 106.1433887  38.0752420
  82.6184273 106.8010902  37.5321364  82.4423981 105.9865665  38.7956810
  20.5670238   7.6797265  38.1325555  19.7852266   7.9541814  38.6118245
  20.2398229   7.0745730  37.4670029  26.7927408   3.9685151   5.8836204
  27.0484638   3.3542606   5.1954859  25.8943248   3.7217778   6.1031628
  55.3662825  58.0403185  92.3621178  55.5564213  57.5956631  91.5360641
  56.0698080  58.6825752  92.4558640   1.6898654  83.2263374  -0.0368756
   2.2059748  82.4513245   0.1849700   1.9678664  83.8884449   0.5960204
  56.5024471  89.4302368   3.1292731  55.8631849  89.9595833   3.6061049
  56.4554071  88.5681057   3.5424894   1.8160015   7.8729463  14.7251487
   1.8703707   8.7040329  15.1969242   2.2201425   8.0525434  13.8762403
  86.2023926  85.3199291  29.8756003  86.5059376  84.4866943  29.5153117
  85.5335426  85.0749397  30.5150199  87.5905418 104.6131134  13.1905854
  87.0554447 104.6901512  13.9804995  87.2570229 105.2953529  12.6078808
   6.7961109  14.6378219  27.7561808   6.8174624  14.6411598  28.7131357
   7.6050395  15.0790715  27.4970174  75.8422995  88.5898972   5.2214235
  74.9690104  88.9537144   5.3671551  75.8593655  87.7901363   5.7470995
  69.7148609  59.8356056  84.5796967  69.9065590  60.5755234  85.1558971
  70.3967714  59.8714495  83.9089203  66.7045021  68.2004261  86.3031483
  67.1732855  67.8997040  87.0816326  65.9680653  68.7058210  86.6473484
  66.4905834  34.7069049  86.2413692  66.0141850  35.1624441  85.5472755
  67.3428202  34.5057964  85.8547401  70.7193232  70.5179977  87.6189613
  71.1493683  70.6558418  86.7749882  69.8099518  70.7767105  87.4694920
  37.9569387  70.2111149  71.3370514  37.3769307  70.5011559  72.0411110
  38.7821364  70.0049973  71.7761374  81.0376835  87.2139740  30.8545995
  81.6388988  87.4583530  30.1510024  80.9483337  88.0089378  31.3802147
  25.0887299  92.6597595   6.6662109  24.9089122  93.0045033   7.5408798
  25.4783821  93.3956623   6.1941487  73.6179495  30.7765508  85.6135654
  73.2381439  30.1598239  86.2393665  74.5636368  30.6676936  85.7138824
 110.7738018 104.5482063  13.4630477 111.1077595 104.8275471  12.6105964
 109.9293041 104.1419888  13.2680333  41.0027409  21.7703652  86.4330959
  40.2645588  21.1742902  86.3065338  40.7575321  22.5607705  85.9520912
  50.5109501  50.8852959  91.4822006  50.3172064  50.7422590  90.5557919
  51.1163855  51.6266727  91.4885807  57.7872705  90.0840282  33.8550401
  56.8575001  90.2670193  33.9902043  57.8125000  89.5416832  33.0667138
  54.9072742  39.3047643  80.8404350  54.8832226  39.3401980  81.7966747
  55.8389759  39.2588615  80.6258202  49.0917826  56.2907648  78.6834049
  48.9733315  55.4854536  78.1797457  48.2018709  56.5958214  78.8601208
  17.4404705  54.3071508  20.4789662  18.1151152  53.6294556  20.4363370
  17.9276812  55.1310301  20.4699850  49.6661997  40.3623486  74.4440126
  49.2300701  41.1309338  74.0761900  50.5943394  40.5001974  74.2548466
  86.6605091  87.2791100  41.0018778  86.8152809  87.0823193  40.0780010
  86.1006451  88.0554199  40.9908772  58.5701990  70.7635546  84.5602036
  58.8115501  70.4606915  85.4355621  57.6231813  70.8953667  84.6050072
  52.3262215  50.9807158  76.5044069  53.2229710  50.9214067  76.1749363
  51.7930126  50.5720663  75.8225489  67.7657557  96.1113358  13.8368595
  67.8253078  96.2263107  14.7852612  67.6593685  95.1677513  13.7161982
  38.8245797  39.6316528  74.6518993  39.0350604  38.8359261  74.1632748
  37.9643869  39.8936915  74.3238258  76.5496206  27.0604658  66.3771391
  75.9537935  27.3216319  65.6749916  76.3598394  27.6691413  67.0910931
  70.0400162  68.7857151  11.7179108  70.6751299  68.1275272  11.4356875
  69.4119692  68.8369608  10.9973812  24.1083336  21.5480947  17.5175178
  24.8123360  21.2916756  18.1132197  23.4121776  20.9119391  17.6815450
  18.5722303   7.5543350  11.7381203  18.7133586   8.2383794  12.3926425
  19.1263282   7.8103691  11.0007918  59.8959589  39.2196035  92.4567795
  59.4868422  39.7866535  91.8030930  59.2629242  38.5144734  92.5920200
  76.5036011  96.3095665  30.5240512  77.0917225  97.0065689  30.8147788
  76.4701939  96.4058208  29.5722890  57.0607901  36.3345480  81.4618969
  56.1529875  36.3005090  81.7634964  57.3105526  35.4173088  81.3499928
  13.2173884   8.5187304   5.5659235  13.6525404   9.3623883   5.6888688
  12.4454832   8.5628909   6.1302322  20.0783587   1.1589832  19.0658760
  19.4906414   0.9708607  19.7976065  20.5442142   0.3364696  18.9152706
  68.7435293  30.7286191  83.2524300  69.3171024  30.4389954  82.5429535
  67.8589106  30.6323457  82.8997135  75.6262875  99.7575665   4.5208248
  75.3041315  98.9717388   4.0793306  76.4697456  99.4960213   4.8901615
  25.4157448  10.7563436  59.1398716  25.3356552  10.1869047  59.9050856
  25.3218341  11.6423404  59.4897604  71.3786983  81.2508869  68.9668131
  72.2018719  81.2849998  68.4795189  71.5245295  80.5830765  69.6368837
  62.8666067 100.9755898  68.9935875  63.8061571 101.0721397  69.1490221
  62.5550222 101.8687534  68.8472795  38.8124919  48.4505320  81.9883823
  38.1054425  48.0418730  81.4890766  39.5962119  47.9612017  81.7382431
  60.0096941  24.2386556  91.4026546  60.2880859  23.7698340  92.1893787
  60.3229284  25.1336074  91.5337086 111.5639591  47.3369122  78.5225105
 110.7174397  46.9582605  78.7596893 111.9846344  46.6654873  77.9854250
  71.7266750 101.4435101  22.1960926  71.4392996 101.5945721  23.0965519
  71.6136742 100.5023193  22.0633268  96.7280674   3.5031372  26.8758488
  95.8453465   3.6760086  27.2032022  97.2964287   4.0476295  27.4205709
   9.3243730  11.5737486   3.4908849  10.2783537  11.6514289   3.4799987
   9.1255248  10.9647751   2.7796590  24.2179847  53.8131809  58.3530807
  23.9311147  54.5081234  57.7606344  23.5793614  53.1115341  58.2262468
  62.7641726  74.0195179  81.5383625  61.8159199  74.0156794  81.6688824
  63.0841684  74.7033215  82.1267891  28.0384469  43.1539917  82.4430752
  27.5198293  42.3592663  82.3178387  28.5711479  42.9728079  83.2174397
  79.2553663  90.6472683  38.3420181  78.4429121  90.3283310  38.7349939
  79.0261316  90.8264351  37.4301052   3.1053275  12.5539780  19.0673137
   2.2154932  12.9032052  19.1169822   3.3599952  12.6764607  18.1527793
  84.1775036 104.9432659  17.6309216  84.5385265 104.7331905  18.4921789
  83.3628368 104.4429111  17.5841737  67.6619864  98.7277031  32.3082447
  67.9544163  97.8314877  32.4741006  67.8222418  98.8629627  31.3742995
  59.3526840  44.8601723  84.8271465  59.8167610  45.4840469  85.3853989
  59.7451925  44.0127897  85.0371742   9.3958580  26.8034792  75.4157591
   8.7979591  26.3808107  74.7992373   9.1381896  27.7252913  75.4055405
  32.9673886  19.9466825  22.1995425  33.8043594  20.3489351  21.9673705
  32.8116417  20.2222013  23.1029034  12.6171255 106.7021942  87.7774429
  12.1586716 105.9405708  87.4224949  12.9521227 107.1606827  87.0068550
  22.2743201   3.8117564  42.3962212  22.5227427   4.5746255  42.9182816
  21.4574337   4.0695643  41.9690657  51.2870026  78.9224291  88.1589699
  50.7569170  79.0074587  88.9514351  51.7366838  79.7637463  88.0801964
  54.3151760  47.8203869  76.0054541  54.2506409  47.6865911  76.9510603
  54.2524862  48.7688828  75.8929348  93.2808685  93.8710213   8.0032665
  93.1855297  94.7303772   8.4139377  93.3942699  93.2663727   8.7365967
  40.9041166  38.1116629  78.7963629  41.2623835  38.9992332  78.7866640
  40.4946566  38.0092502  77.9372454  70.6466007  15.0471592  64.1673613
  70.8394384  15.9766150  64.2904758  71.5008259  14.6436775  64.0132904
  69.6915627 101.9566441   1.8338871  70.1217890 102.3530197   2.5915307
  69.4279051 101.0873985   2.1357679  40.3031874  55.7098150  87.1513081
  39.3602729  55.7066822  87.3160172  40.6810808  55.2726507  87.9144096
   6.5943527  36.4040184  13.1736207   6.6556090  35.5536866  13.6088383
   6.8513632  36.2288213  12.2683680  40.5386972  20.5490708  25.8414268
  41.4748859  20.5154061  26.0380292  40.4955387  20.5770206  24.8856091
  90.0585938  59.2089796   1.4962281  89.8316193  60.1260567   1.6501115
  89.4904137  58.9394569   0.7745901  52.5341129  22.9063487  74.8041868
  52.5824928  23.7330747  75.2842093  51.5996504  22.7011395  74.7741890
 104.1774082   0.8149583   8.0115438 104.5240593   1.6864517   7.8203398
 104.4178963   0.2889031   7.2488761  44.8273993  50.3098965  73.5274363
  45.0974035  51.2193537  73.6547852  44.7918749  49.9445677  74.4114637
  73.4055805  31.7114186   9.1400659  72.9803371  32.5684357   9.1703665
  73.7541485  31.6483045   8.2508248 102.5854397   6.0650116   2.8880757
 102.3665333   6.6040814   3.6481509 102.4395275   5.1658595   3.1821302
  56.5310574  59.8736286  86.9124317  56.6744137  60.5202627  86.2213898
  56.4965248  59.0349913  86.4522934   5.0513601  73.5308981  84.1957283
   4.2612091  73.0299282  84.3980217   5.4521793  73.7005854  85.0482464
  42.3850060  12.3227561  26.4965081  42.1825123  11.7778385  25.7360530
  42.4861193  11.7006004  27.2168779  49.2266989  99.2914867   3.3839223
  49.2719889 100.1432514   2.9495591  50.0747395  99.1985989   3.8180113
  70.7832289  83.5763645  36.7205334  71.3273478  83.2605267  37.4419284
  70.0110245  83.9472771  37.1475673  83.8300419  67.9782248  80.2651787
  83.6913681  67.2459364  80.8658123  84.3689251  67.6134682  79.5631886
  21.8046403  51.3263798  66.1133766  21.0109496  50.8097363  65.9742165
  22.0737672  51.5934277  65.2344656  76.1415005  79.4275236  89.9457359
  75.1858711  79.4749546  89.9732590  76.3925171  80.0484085  89.2618370
  72.0762873  92.9988289  18.0806971  71.3222075  92.8901196  18.6601603
  72.0532703  92.2300720  17.5108659  82.5322914  28.2333827  91.1178684
  83.4349537  28.3164239  90.8103943  82.0295620  28.8111210  90.5436516
  56.4555693  38.3975410  70.3528547  56.2470627  39.3287873  70.4272795
  55.8465290  37.9670429  70.9528303  75.6658936  76.1474037   1.5815988
  75.0797606  76.3077402   0.8420221  75.3976727  76.7857218   2.2425401
  88.5001183 106.0037422   5.1764756  88.5047245 105.8600235   6.1228144
  88.1018162 105.2115631   4.8158509 104.8625469  90.5702305  48.4173536
 104.4682026  90.3043556  47.5866699 105.5934143  89.9644661  48.5402727
  20.8113432 105.2100086   4.2406914  21.2317920 105.5059624   3.4333092
  21.5114665 105.2211666   4.8933288   7.9837734   4.5432460  66.8028259
   8.7525660   4.4269395  66.2445593   8.0249292   3.8144395  67.4220037
  27.8827834  53.7573242  84.9030209  27.2208333  53.0785942  85.0348663
  28.4582233  53.4022760  84.2254925  31.9537091  52.5759840  86.5456104
  32.2466922  51.6674376  86.6158676  31.1682320  52.6172113  87.0911026
  66.2399673  25.1269555  86.3807774  65.7785416  24.6564937  85.6865215
  66.1685181  26.0489535  86.1336994  58.5757685  13.6400390  83.1597614
  58.9628077  13.9408565  83.9819145  58.0788279  14.3928099  82.8394222
  30.2341390  31.9895363  77.1423244  30.5137873  32.5986171  77.8257322
  30.4359245  32.4404287  76.3224363 106.7821407  93.0842876  12.6982939
 107.1969318  92.3813438  13.1983352 107.3437691  93.8455677  12.8441250
  79.0783548 105.1893902  23.5955071  79.2570305 104.3610573  23.1503510
  79.8974180 105.4025459  24.0426517  36.4740705  23.5993886  87.5974178
  36.5144038  23.9545465  86.7094612  36.2710595  24.3551302  88.1486607
  17.1605337   8.0907518   5.0022042  17.0879710   7.3196304   4.4397652
  17.2736740   7.7346432   5.8834636   8.4222835  10.7298577  28.5544038
   8.9568412  11.1828363  29.2065454   8.9518106  10.7465780  27.7571893
  39.9352765   1.5635434  23.9377689  39.3978596   1.7740004  23.1741428
  39.4759870   1.9692957  24.6730566  89.1940212  83.2064247   9.2482805
  88.9881039  82.7546883   8.4298891  89.9385738  82.7238560   9.6074468
  26.7774081  42.1016836  18.7551641  27.1888590  41.2839746  19.0349638
  25.8707190  41.8607998  18.5651028  69.7712088  72.8050518  82.9138470
  69.1679096  73.3210373  82.3790359  70.3960419  73.4449148  83.2550049
  77.2669888  55.9412622  32.8742361  76.8272257  56.7236376  32.5414681
  77.2661400  56.0521412  33.8249922   9.8638058  15.8742094   8.9241040
  10.3069139  15.3328109   9.5773840   9.4404542  16.5654659   9.4331896
  58.3026648  47.5374508  86.7533684  57.6626301  46.8340778  86.6445160
  57.7781916  48.3057117  86.9790745 108.6406612 105.8598614  25.4599285
 109.0417957 106.3492393  26.1781454 109.1032505 105.0218868  25.4533339
   5.3618944  66.2912703   1.0164828   5.2037042  67.2311878   0.9283418
   4.5395589  65.9410810   1.3590643  81.4877033  70.1218557  86.6865635
  80.8639050  70.7917881  86.9663715  81.0848904  69.2944956  86.9500923
   9.0459001  52.9275894  85.6580162   9.3364263  52.1603632  86.1511517
   9.5152438  53.6603928  86.0566998  70.1039743  27.0844746  91.6569996
  70.5386114  27.8110933  91.2105179  70.7870197  26.4212441  91.7560387
  71.2059307  99.7618961  52.2503996  70.3077698  99.9064732  52.5481081
  71.4918232  98.9798927  52.7225971  15.1602435  13.9256132  24.5639420
  16.0872436  13.7205708  24.6858430  14.8041868  13.9617860  25.4517198
  70.5104208  54.7666216  89.5574760  69.8271704  55.1082659  90.1342678
  71.3291550  54.9676466  90.0107956  96.6276646  37.2522402  66.5937185
  95.8130836  36.8061161  66.3620710  97.2132587  36.5499473  66.8767309
  33.8074374  30.5747819  46.3932323  32.9249525  30.5178475  46.0268831
  34.1513300  29.6837950  46.3291025  59.0221930  98.2450294  29.0186429
  58.4755850  97.7034569  29.5879865  59.3299103  98.9529037  29.5847344
  97.4515057  82.0368481   9.1543019  97.4663067  81.2588692   9.7117728
  97.9293156  81.7763615   8.3668512  14.8603535  64.9285603  46.2250614
  14.2813516  64.4671440  45.6183624  14.4493389  64.8144722  47.0819616
  48.1278372  17.3060179  82.0442772  47.2103453  17.4183977  81.7956543
  48.1637144  17.5838196  82.9595757  78.3513166  42.5520662  92.9543536
  78.3143590  42.9958014  92.1070242  79.2864945  42.4439482  93.1275132
 113.1499195  84.4662476   9.0113914 113.0383968  84.0697098   8.1473589
 112.2578049  84.6355724   9.3141723  91.9566536  90.0265026  15.0509512
  92.6387596  90.3012180  15.6637335  91.8622780  90.7658863  14.4504142
  67.8872824  18.3475995  82.1559238  67.5112534  17.5301516  82.4824333
  67.6126480  18.3884943  81.2398720   4.6673208   2.1783501  34.5059061
   5.3204608   1.5008187  34.6808100   3.8321099   1.7707349  34.7350454
  68.8996267  45.2303934  90.7298565  69.0419483  44.3337345  90.4265785
  69.7738743  45.5488253  90.9546280 112.9364204  70.7912397   8.9357787
 113.8716221  70.5937004   8.8848042 112.5159550  70.0894833   8.4388024
  35.3367352  44.2666817  91.9179821  36.0456133  44.6105862  92.4615383
  34.5381880  44.6024132  92.3252106  59.5411825  94.1516781  37.8234363
  58.8316298  94.7011662  37.4905229  59.1268682  93.3073807  38.0015707
  27.4836516  52.1712160  45.1758242  27.5179839  51.3191128  45.6105280
  26.8195581  52.0659590  44.4945526  96.8261814   7.4027300  19.4702947
  97.3088264   7.9956132  18.8942945  96.4324570   6.7616266  18.8785160
  34.0281343  45.8460999  84.9815273  33.2757640  45.5894852  84.4483089
  34.0041137  45.2517176  85.7314396  33.2482338  24.5953488  86.7038345
  33.2915568  23.6541605  86.8727112  32.3129988  24.7986507  86.7192459
  95.5365181  78.7721682   5.3856939  95.5320358  78.5788107   4.4482380
  95.8011723  79.6904755   5.4395741 111.4834499  16.1501789  -0.1367783
 111.3207054  16.4379287   0.7615238 111.9214058  15.3043711  -0.0417163
  67.1670008  32.9976320  58.0341101  68.0328560  33.3256221  57.7913237
  66.7146254  32.8750610  57.1995068 100.3234005  63.6035633  19.0026021
 101.0786724  63.0162811  18.9726365 100.4224682  64.0792704  19.8272955
  90.4143524  99.5782948  29.2914319  90.0122261  98.8405228  29.7499323
  90.4230976 100.2852726  29.9366760  90.8549881  34.2860889  78.0051327
  91.3985538  33.5418034  77.7466679  91.4210415  35.0487781  77.8863382
  10.5187881   9.0442675  13.1993783  10.6911027   8.9121801  14.1316295
  11.2022150   8.5417575  12.7559352  36.2041378   5.4150522   0.7155278
  36.5284824   4.5332700   0.5325216  35.8985448   5.3745681   1.6217318
  70.8379173 106.7950249  15.5249238  70.3095245 106.8836212  14.7317123
  71.6456699 106.3752747  15.2289939  88.5618401 102.8337288  24.3325925
  88.1907368 102.1904278  24.9364853  89.4970512 102.8419685  24.5364356
  19.3255126  53.0437517  84.8371601  19.0078080  52.8375578  83.9580822
  20.0464034  53.6568928  84.6936035 110.1299095  97.4475384   4.4930431
 109.2127323  97.4558640   4.2192644 110.6085873  97.1538162   3.7179106
  75.5122900  87.3964119  73.4702349  75.4526854  88.1479645  72.8804445
  76.3175821  86.9499588  73.2086658  99.9497986   5.6822747   4.9536526
 100.0602341   4.7988844   4.6020061 100.5247307   5.7092309   5.7184732
  49.7252655  44.5214558  84.6570683  50.3268051  44.5131302  85.4015923
  49.3785381  45.4134750  84.6392632  34.5150948  10.9892702  15.2824128
  35.2439427  11.5993154  15.3958070  34.7963929  10.4088485  14.5751548
  97.9238224  97.0078850   4.3434066  98.3833122  96.1897850   4.5326474
  97.0023918  96.7562294   4.2813221  97.3038006  78.4632015   7.5146538
  96.5745926  78.8831091   7.0584071  97.2288132  77.5370789   7.2846460
  95.3305340  95.2441883  27.1048307  95.9081650  95.9759617  26.8878484
  95.6500626  94.5193481  26.5674877  26.3485813   1.8671605   8.2491821
  27.0549035   2.4335954   8.5598105  26.7105842   1.4353418   7.4754131
  88.8223171  85.2683926  10.9354961  89.6612549  85.7290363  10.9206128
  88.9260387  84.5612240  10.2987969  77.8745699  95.9227562  14.0466583
  78.5018110  96.5404034  14.4225812  77.0417690  96.1434555  14.4637454
  97.6072788  20.3105044  13.3690047  97.1579552  20.3991365  14.2095292
  98.3858204  20.8607864  13.4544122   4.4705099  57.4151802  87.4484444
   4.9039984  56.7848444  88.0237675   4.7712439  57.1836567  86.5697002
  74.0122652  87.5459003  17.3104525  74.6325731  87.3752403  18.0192029
  73.6978722  86.6791153  17.0534253   7.2815156  16.7183363   0.4123747
   7.7371395  16.0105491  -0.0433414   7.9679650  17.1652639   0.9076268
  25.5703282  37.6527119  44.1998672  24.9322009  37.2019768  43.6468172
  26.4182019  37.4384332  43.8107347  37.5301576  10.5965137  20.7144594
  37.1523762  10.1374769  19.9642599  36.9668722  11.3608170  20.8360481
  23.7309194   5.5950135  48.2032251  23.2985616   5.1747054  48.9466238
  24.5947337   5.8393949  48.5353947  30.4309464  56.0100937  80.3426361
  30.5608726  56.6242027  79.6199894  30.0480175  55.2347755  79.9321699
  67.9706144  69.8041773  92.3261070  67.6999331  70.1683664  91.4832973
  68.4988928  70.4945517  92.7267742  89.4688034 103.3774757  11.7258382
  88.8670254 103.9213562  12.2340631  88.9341545 103.0326653  11.0106599
   6.2928009  30.3897905  22.0999432   6.0989040  29.8867726  21.3089895
   7.1590984  30.0857902  22.3707652  54.8384285  80.6255627  85.6341743
  55.2640486  80.6822777  84.7786808  53.9502668  80.3258038  85.4404163
  62.2557449  58.6568499  86.2582207  62.2070837  59.0858030  87.1125412
  61.5488243  59.0545082  85.7499313 113.6913776 105.2094650   6.6893828
 113.2053089 104.5397663   6.2082630 113.4761810 106.0285187   6.2432152
  56.4945841  76.9363737  57.3007488  56.5523577  76.0187149  57.0346642
  56.4954996  77.4249363  56.4776230  53.3232307  37.1709704   9.1674328
  53.0997992  37.9852080   8.7165171  54.1121197  36.8599796   8.7233973
  58.5288239  48.5384703  83.5719776  59.0071106  48.3130980  84.3699074
  57.6588917  48.7944937  83.8784218  14.7859359   4.3822402  18.6595035
  15.6788313   4.0605474  18.7839305  14.2895806   3.6111221  18.3852029
 100.9477520  90.4922771  19.1232491 101.5278244  89.8333549  19.5047927
 100.8799934  90.2463436  18.2006669 112.4609756  14.9435437  10.5812454
 111.8766212  14.8097062   9.8350263 112.0774555  15.6805325  11.0566282
  13.7403178   3.6568257  10.5832601  13.7174368   4.6070385  10.4701054
  14.2792547   3.3421046   9.8574990  80.1782322  31.2216401  84.5781612
  80.1384163  31.7404270  85.3816032  79.5985603  31.6788077  83.9688873
  32.3592234  68.2262421  90.5207634  32.0561934  67.5367117  91.1114788
  32.9441524  67.7782059  89.9097347  53.3806992  87.2707272  85.5564117
  53.9588594  87.5838566  86.2520504  52.5971556  87.8151798  85.6329823
  71.2080145  57.7800035  82.0081806  70.3377867  57.7644444  81.6098213
  71.7550564  57.2727203  81.4084816  22.4463344   0.9261659  34.0712762
  22.7638578   0.1071607  33.6909580  21.9796991   0.6576600  34.8627234
  68.4851789  51.0540867  88.0759335  68.1594801  50.4142094  87.4429131
  68.8993454  50.5262089  88.7586021  23.5494208  99.5814037  34.5998359
  23.7152576  99.2926407  33.7024260  23.5712671 100.5371475  34.5518064
  76.1402559  81.1986732  87.9003429  75.2505732  81.0987282  87.5616455
  76.7021179  80.8713245  87.1979332   2.7287635   3.7779081   9.1158402
   1.9288497   4.3023384   9.1524798   2.8854001   3.5162735  10.0231683
  39.2823148  64.2587900  14.6641278  39.3794179  63.3124208  14.5583868
  38.7925363  64.3595934  15.4803324  50.9154081  84.3922710  82.5819016
  50.5361605  84.5096207  83.4528923  51.7283154  84.8971462  82.6046181
  18.6963689   5.1147896  13.7871897  18.0675042   4.5633781  13.3216715
  18.5077143   6.0025382  13.4829783  31.0766172  30.8877373   0.5178783
  31.2824941  29.9853444   0.7618691  31.8762994  31.3767052   0.7119195
  64.8802853  69.0617895  71.6735125  64.3006229  69.0876341  72.4348021
  65.7486916  69.2544413  72.0270491  90.5765724  92.2171021  88.1984234
  89.7108364  91.8774509  87.9717445  90.3981781  93.0197048  88.6885548
  87.9397678  89.6266651  31.4593792  88.0498123  89.7982407  32.3946238
  87.9367542  88.6720085  31.3897395  39.1893816  37.5944376  42.9539013
  38.6964035  36.8215275  43.2292461  38.7440372  38.3268595  43.3798790
  28.7971067  34.9897742   2.3852307  29.2278123  34.1397905   2.4760714
  29.5061636  35.6275487   2.4671747  40.9564400  16.3925970  17.6734829
  41.5873480  17.1066523  17.7646422  40.1238966  16.7710435  17.9561234
  14.6942925  54.1546917  53.0366755  13.8145316  54.5150852  53.1478882
  15.2757263  54.8301315  53.3858824  70.7980204 105.0747299  11.4254880
  70.5568361 104.1486645  11.4470994  71.7544842 105.0723171  11.3880420
  44.3837452  29.8150468  41.5159988  45.0309563  29.9109864  42.2146749
  44.1072798  28.9002085  41.5695858  84.4648933  20.4477668  69.3886280
  84.8776436  20.4414105  68.5250187  85.0820065  20.9223723  69.9455452
  95.5218124  28.3464217   2.3135859  95.1895142  29.2398095   2.2260074
  96.1554718  28.3956552   3.0293301  65.7041311  91.6661930  88.7499809
  65.9290504  92.2234726  88.0049419  65.0676346  91.0430908  88.3994770
  35.3184891  52.1027899   6.1919576  36.1937976  52.4349833   5.9926760
  35.0019717  51.7482233   5.3610963 110.3484058 105.1069736  18.5797942
 110.8657265 105.5690098  17.9201508 110.1073647 105.7837391  19.2123425
  31.2521291   9.3606633  28.6912322  31.6620016   8.4978032  28.7521267
  30.4705667   9.2174375  28.1574917  36.8774152  14.8333120   1.2539074
  36.1346889  15.0070632   1.8321821  37.4128318  15.6249642   1.3072683
  22.4548674  48.9128017  15.4933703  22.8347707  48.2809353  16.1038220
  21.5491915  49.0140009  15.7861900 102.8558159  94.3583679  19.3895686
 103.0319881  93.7673283  18.6575389 103.6701775  94.8484421  19.5030546
   3.8074857 100.7596302   5.8649123   3.4740618 101.2919331   5.1426125
   3.8343444  99.8695087   5.5139369  41.3511467  54.5949411  89.1996670
  41.0922861  54.3079185  90.0753593  42.0188904  53.9648962  88.9287472
  81.3821125  93.3691216  85.4537678  81.4781666  92.4176121  85.4134178
  82.2641373  93.6912251  85.6395245  97.3962212  81.7902946  79.7766685
  97.4869347  81.5382862  78.8577080  98.2251549  81.5310955  80.1790524
  45.0443697  24.2335105  19.9008024  44.0915871  24.1964245  19.9848425
  45.2055168  24.1463065  18.9613032  82.3172855  61.2830734  76.3857174
  82.6202869  60.3819513  76.4970827  82.1769714  61.3738346  75.4432201
  39.0295243   4.5895100  21.2098503  39.2025733   5.2600634  20.5490613
  39.8971319   4.2794552  21.4693785  13.8484263   0.0694680  10.2776980
  13.0140710   0.2762383   9.8565930  14.4618082   0.7128929   9.9227339
  86.1567402  72.9506397   0.8956113  85.4055786  73.5144281   1.0803519
  85.7833099  72.0730257   0.8145346   3.9076421   7.6343024  17.5903273
   4.3649265   7.7428305  16.7564547   3.0220211   7.9558402  17.4214482
  90.9988594  40.4883337  89.9374580  90.4745960  40.2944374  89.1604233
  91.6460896  41.1261797  89.6366501  21.1371899   1.5503035   7.8093600
  20.4742289   1.1936957   7.2181368  21.1773562   2.4812925   7.5905496
  82.4856281  70.2756929  79.2102146  82.7795887  69.4848919  79.6623850
  83.2643509  70.8306789  79.1675615  67.5285912  85.1102066  69.3059254
  68.1101370  84.5981121  68.7439680  68.1020355  85.4618073  69.9869299
  32.8802729  90.1790142   6.3476139  33.2912374  90.6908798   5.6509507
  32.9884434  90.7142639   7.1337700  60.1417065  69.3093300  70.3507614
  60.9732008  68.8601398  70.1988316  60.0150728  69.8491955  69.5705414
  92.0507431  99.3015099  13.2010078  92.9349518  99.2063808  12.8469515
  91.4900684  98.8510799  12.5693536  52.3303461  68.4717321  88.7678146
  52.4921513  67.8991985  89.5176506  51.4124250  68.3189583  88.5435009
  38.7787628  71.5526628   1.6017114  39.2289090  70.9360743   2.1791360
  38.2821321  70.9982729   0.9998444  69.1541529  86.1535645  78.1726408
  68.9262915  87.0662498  77.9956961  69.5613098  86.1719322  79.0387344
  35.0330448  26.4188480  11.8299794  34.3435550  26.0318947  11.2904418
  34.6905947  27.2780871  12.0762873  14.6075356  14.0703893  15.2467406
  13.7710893  14.2459500  14.8157322  14.3973792  13.4285736  15.9250760
  63.0528164  65.8510733  86.6967487  63.3962393  66.0810137  85.8333683
  63.6980820  65.2426767  87.0569229  34.0161967  79.0850735   2.1277782
  33.1547785  79.1859674   2.5327584  33.8903618  78.4083557   1.4626086
 111.8099117   3.1765607  19.2377222 111.9631577   2.2363248  19.3310189
 112.4484158   3.5826299  19.8239398  13.3814633  28.8577247  26.1437464
  12.7447820  29.1770983  25.5043173  13.5181689  29.5974541  26.7356420
  86.2570572  65.0761604  42.3331356  86.6840839  65.2614927  43.1695175
  85.4800320  65.6351471  42.3318863  85.7729340  41.7087364  84.6165466
  86.7104244  41.7574930  84.4295216  85.3547668  41.7476082  83.7563896
  31.9179606  64.7484970  59.9263525  32.5204873  64.1948795  59.4296598
  32.4480462  65.0960112  60.6436205  90.5212593  56.9818258  74.9023819
  90.0117111  56.7225504  75.6700850  90.5609131  56.1918688  74.3632793
 112.5302124   9.7802949   5.2422589 112.8150082  10.0620544   4.3729296
 112.0109844   8.9925820   5.0805718  48.7074804  44.1442108  79.6285868
  49.2632580  44.7722816  80.0899696  48.3091259  44.6513319  78.9212132
  66.4919329   9.9572480   2.5396982  66.4003801  10.8391070   2.1788990
  65.8253670   9.4421226   2.0852041 112.0154476  13.0417013   3.2496178
 112.6375294  13.6986363   3.5621589 111.1968899  13.5237563   3.1321064
  97.7060318 104.8093796   1.4580981  97.1986389 105.3796196   0.8805108
  98.5397720 105.2653885   1.5728255  91.1324692  93.3998108  19.2644095
  90.5886936  93.3966732  18.4766734  90.6596851  93.9603996  19.8795819
  37.7469659 100.9841824  55.1074934  37.6827645 101.9346142  55.2012920
  36.8700480 100.6630039  55.3174782  31.0339212  32.9436135   2.6044014
  31.7098093  32.6959515   1.9734752  31.5065074  33.4198904   3.2870823
 112.1981907  62.6160812  76.7352152 111.9300461  63.5323906  76.6665983
 111.4951515  62.1280432  76.3065100  94.0620518  99.4034290  19.6756375
  94.8816872  99.1734886  20.1133013  93.4665489  98.6852551  19.8897290
 108.4997463  85.4559231  35.9087300 107.5859451  85.4924393  36.1913514
 108.8520527  86.3192272  36.1250925  55.8533478   5.6082463  17.1570921
  55.8490705   5.8183223  16.2232387  55.0531578   6.0091925  17.4964523
  35.9217310  33.0671024  14.2913878  36.4291406  32.3423839  13.9259410
  36.4044023  33.8520408  14.0322864  64.6831703  34.8543501  80.5159855
  64.2744112  35.3811789  79.8292542  64.2325020  34.0110683  80.4711437
  35.4955029  86.5093231  83.2040405  35.2046466  85.9764099  82.4640179
  34.8494077  87.2132874  83.2608414  91.7031860  86.6519737  82.3453045
  92.0024967  85.7625675  82.1566582  92.4927711  87.1166611  82.6225376
  48.0882215  82.1090508  83.2646275  47.7728748  81.6565323  84.0469360
  48.2932758  81.4064121  82.6477909  86.3734436  88.1828308  92.0010376
  86.5779018  87.2574520  92.1356106  87.1816540  88.6422825  92.2289085
   2.9860586  45.6393909  10.4450762   2.9626662  45.5941868  11.4009225
   3.3633095  44.8021936  10.1748633  83.1334305  96.3971233  32.1407557
  83.2139778  95.4517460  32.2672367  82.5140381  96.6770267  32.8147340
  42.4208450  20.2741075  12.5530100  41.9342518  19.9552691  11.7928767
  41.7490387  20.4443336  13.2132626  75.8847380  54.1050196  86.9237709
  76.2653303  53.3947039  86.4072037  76.1320543  53.9039230  87.8263378
  51.3967133  19.2796266  11.4723408  50.9026670  20.0906229  11.3521969
  52.3139048  19.5467138  11.4118385  33.9193368  23.8996267  20.8431554
  33.2030153  24.5336056  20.8776069  34.5805025  24.2526913  21.4385009
  96.5914345  98.7511921  75.5810928  96.2888718  97.9564571  75.1416779
  97.5291824  98.6104488  75.7116938 111.2647724  60.1128149  84.0608120
 111.1336136  60.6682682  84.8292542 111.9765663  59.5233583  84.3100262
  47.7901316  36.6110873  81.5146160  47.3766565  37.3899007  81.8870640
  48.6545515  36.9104075  81.2328053  76.8024683  82.8950405  84.5413685
  77.1183729  83.5597420  85.1534271  75.9018230  82.7244091  84.8169708
  70.8022690  85.9231472  80.5822754  71.2565136  85.5683804  81.3464928
  71.4466286  86.4945793  80.1645470  17.5867975  87.2675419   4.4389135
  18.3275878  87.1822834   5.0390744  17.8972292  86.8830776   3.6191273
  92.5001717 102.3484707   1.0654958  91.6480541 102.3202133   1.5006150
  92.9698563 103.0576420   1.5044768  34.9076104   3.2952634  22.9904890
  34.1534376   3.4521636  23.5586810  35.1825094   2.4022859  23.1984639
   9.1250956  35.9900594   1.7862599   8.5723227  35.7837510   1.0325284
   8.5568893  36.4934111   2.3693645  20.2421212  65.3625011   0.7199956
  20.4321480  66.2016535   0.3005393  20.2145147  65.5631733   1.6555168
  50.3889561   7.0678604   7.6129973  49.5290279   6.8056107   7.9416054
  50.8706760   6.2459546   7.5199902  23.8409472   0.4823094  41.1684561
  23.4305739   0.0781189  40.4039621  23.3938479   0.0874816  41.9170856
  50.6383562  36.0619926  54.3174744  50.2281046  36.9225597  54.4032145
  49.9092340  35.4645848  54.1509914  32.0225811  99.0612698  74.3214703
  32.1998239  98.2727337  73.8086128  31.2342620  99.4325066  73.9252758
  29.7757387  78.7235785   0.7042538  28.8331008  78.6385918   0.5612704
  29.9817705  78.0483770   1.3506949  28.5993338  33.5286069  12.2235072
  28.0472302  34.2813230  12.4352467  28.6658001  33.0417132  13.0449378
  94.5779896 100.7396030   0.7288364  93.9037418 101.4182758   0.7609633
  94.5243931 100.3081799   1.5816177  39.6453881  43.3032179  86.7500687
  39.4658446  44.1307306  87.1963978  40.5987072  43.2203674  86.7735004
  21.5441775  26.2239289  11.8357837  22.4658084  25.9802771  11.9221437
  21.1811924  25.5773187  11.2304986   7.6557422  30.7448030   9.8641318
   7.4686116  31.6743398   9.9951786   7.3858166  30.5709505   8.9623845
  51.8013430   0.6521280  15.3700185  51.0610008   0.1527286  15.7145929
  51.4833879   1.5540305  15.3286791  30.2831960  12.4733388  18.4304571
  30.8455253  13.1503356  18.8068771  30.7810569  12.1349561  17.6862371
  50.6423903 101.1039257  60.7680798  51.4200497 100.5977249  61.0030937
  49.9181890 100.6386375  61.1867380   4.6702111  22.3085165  20.9735680
   4.2588729  22.7079964  21.7400217   4.2656031  21.4435053  20.9081531
   3.5005829  16.4847851  18.7467468   3.5993609  16.1376119  19.6332824
   2.5545967  16.5074790  18.6024332  76.6068649  99.1250801  14.9866855
  76.5473175  99.1038895  15.9417963  76.2693691  98.2742214  14.7067308
  65.3300524  88.1748486  13.8079548  64.8086309  88.0274773  13.0188859
  66.1355495  88.5826969  13.4900475  39.7124982  67.6400471  64.1305828
  39.5833135  66.7282200  63.8695955  39.4673181  67.6614475  65.0556040
  97.9611683  69.1977549  75.1407814  98.8183975  69.0564060  75.5425549
  97.4784565  69.7179842  75.7831001  87.1799660  69.5228624  51.3068724
  86.5729237  69.1194105  51.9273186  87.6022148  68.7834167  50.8696556
  81.7726803 106.4140224  16.2787724  82.1598816 105.6778908  15.8050442
  81.5248013 106.0485554  17.1280241  24.8003817  65.0278616  88.6057949
  24.5323133  64.1125584  88.6869907  25.7513690  64.9907351  88.5034370
  88.5433960  91.9806862  30.1969600  89.3963242  92.2504807  30.5374956
  88.3992004  91.1122894  30.5728889 112.7819443  83.1461906  91.5120697
 112.1032238  83.6140442  91.9985676 112.4061775  83.0164814  90.6413269
  52.8494406  83.2965565  86.8428898  53.5849380  83.7533665  87.2510529
  52.6404953  82.5876141  87.4511433  37.4373746   1.0097973  13.4541714
  37.8099585   0.1548340  13.6696970  37.9104471   1.2862572  12.6693130
  32.0087123  97.8106880   8.5963070  32.8717160  97.5491142   8.2753116
  31.3923073  97.3824787   8.0022472 109.4958973 104.2185116  22.1012855
 110.2687168 104.2797375  22.6627350 109.1136360 105.0957966  22.1234465
  48.2893181  40.9870720  62.2569084  48.4867859  40.1465702  62.6701784
  49.0980864  41.4918709  62.3423624  15.6426752  82.3836136  19.9957621
  15.5062366  82.3478508  19.0490103  16.0145104  81.5296745  20.2165866
  76.8514729  45.2491570  87.5483894  77.4511719  45.0368595  86.8331718
  76.0339117  44.8101044  87.3137474  49.8477173  44.3893480  70.5662441
  50.4530239  45.1308489  70.5701399  49.0042973  44.7673607  70.8152103
  77.9953766 106.9698906   6.6087306  77.2437763 106.3846684   6.5147257
  77.9888582 107.2216702   7.5321990  97.2685814  16.2934363  49.5994568
  98.1169224  16.5935743  49.9257565  97.4705410  15.8604801  48.7700081
   3.6646119  94.8326683  27.1361732   4.5112216  95.1281548  27.4710989
   3.0563325  95.5334473  27.3710012 109.6408272 107.5961685   6.5360743
 109.5794392 107.2905254   7.4410838 109.7506237 106.7972755   6.0203850
  54.8461485  57.7376604  27.7404976  55.2134657  58.3490515  27.1021318
  55.6007719  57.2431469  28.0602288  62.5164843  70.5653811  91.4793015
  61.9536734  70.8720016  90.7683468  62.8491926  71.3665247  91.8839073
  42.1981096  25.6697297   7.5125253  42.0760250  25.7543135   8.4581327
  43.0961180  25.3532338   7.4143261  29.0554404   6.0793382  22.7329755
  29.3955016   6.8769181  23.1385064  28.1206703   6.0857594  22.9388738
 109.5899391 104.6037674  52.1868038 110.0422192 105.1857948  51.5761375
 108.8951302 104.2022991  51.6649914  66.4427137  84.5030785  80.4682732
  66.6397095  85.3825855  80.1459599  65.6671286  84.2354488  79.9752474
   7.2035116   8.8396841   4.2170894   6.9078833   7.9774332   4.5092523
   8.0091983   8.9962256   4.7096291   4.9788937  18.5708869  36.7594361
   4.7568277  19.4324672  36.4064527   4.1670397  18.0682182  36.6927361
 110.2350521  37.0868015  31.1084867 109.9576569  37.5767255  30.3343701
 109.5131397  36.4823341  31.2807846  15.2725387  27.1465015   5.0679672
  15.4846752  27.9841733   4.6562171  15.5571270  27.2472334   5.9763139
  15.3368485  25.4699326   2.5235844  15.6098092  26.0353684   1.8010847
  15.4790497  25.9988809   3.3085847  67.1333456  40.3632069  91.2685680
  67.6329708  39.5777130  91.4912891  66.4946985  40.0651932  90.6208420
  82.7373028  64.8461437  80.4860306  82.9353428  64.2319345  79.7790956
  83.5626888  64.9376774  80.9620380  31.1225963  19.4499445  49.2361546
  30.8007288  19.9182236  50.0064468  31.4171457  18.6047411  49.5754242
  12.6698804  29.1637993  18.1198382  12.6421630  30.1062369  18.2849824
  13.5478675  28.8983917  18.3935714  25.2110410  18.5812676   6.1278212
  25.5165482  18.0534220   6.8655717  24.2747569  18.6984837   6.2886500
  37.2780561  16.3071489  22.8954577  37.0133257  15.4067278  22.7073336
  38.2170177  16.2488079  23.0720353  39.3580008   8.1179380   5.4293960
  38.9911127   8.3746046   4.5833769  38.5963893   7.8823924   5.9592056
  68.3570862  82.5074768  62.8968954  68.4386921  81.5660477  62.7442646
  68.5187626  82.6130104  63.8344240  28.8458657  14.8619437  10.2978110
  29.6901560  15.0462210  10.7094479  28.7088203  15.5926192   9.6948493
  91.5789986  81.7661667   9.5194620  92.1852016  81.1950684   9.0476644
  92.1016788  82.5354862   9.7457272  51.0077047  72.4508429  84.3927956
  51.0548449  71.5824461  83.9929295  50.7405663  72.2841263  85.2967167
 112.9106522   8.7362701  70.5450439 111.9594002   8.8142091  70.6177187
 113.1689930   8.2297766  71.3150787  15.9048891   3.3401200   3.2180050
  15.7314622   3.4537113   2.2835256  16.2411678   2.4470249   3.2923707
  35.3637171   0.8697975  23.9116144  35.9015203   0.1181781  24.1607451
  34.4838285   0.6456568  24.2145824  44.6093559   6.5561795   6.5908235
  44.8171997   7.1142817   5.8414537  44.8399353   7.0850551   7.3546010
  39.7820830  27.5021791  30.0922155  39.6841216  27.2200441  31.0016298
  40.4770613  28.1598401  30.1190114  23.2545972   3.4058279  20.8502936
  22.4175692   3.8049585  20.6129956  23.6191320   3.1017306  20.0191069
  29.5226574   3.8743350  29.1536570  28.6153007   4.0894032  28.9376020
  29.6275973   4.1621000  30.0605249  27.4897003   4.8686805   1.7290737
  27.1505308   4.3656269   2.4694335  28.0893445   4.2682764   1.2861611
 107.3809814  78.5103750  33.4346056 108.1544781  78.7862396  33.9263725
 107.3549843  79.0981579  32.6795769  98.1809330  70.7458687  84.2588329
  97.4353981  70.3021097  84.6631718  97.8194523  71.5679502  83.9275455
  20.3034592  12.9579759   0.0343807  20.9887648  12.6768470   0.6406438
  20.3587818  13.9135730   0.0368089  48.0931282  26.8061209  14.5237517
  48.8819885  26.3920641  14.8737264  47.6838064  27.2215319  15.2827787
  43.2619619  46.0731220  68.2362318  43.5077810  46.4071035  67.3735285
  43.6869907  46.6685009  68.8535738 101.0191345   6.4649200  13.1147504
 100.5908585   7.2520351  13.4512877 101.7837715   6.3485879  13.6786866
   5.0274891   6.3329351   5.4179847   4.3544173   6.4277697   4.7440317
   5.2866220   5.4127353   5.3698796  59.4324684  56.9772577  84.1873837
  59.7382736  56.3271189  84.8198700  59.5760870  56.5675306  83.3343124
  51.6559744  62.8656054  91.6789532  51.4180756  61.9875383  91.9766617
  51.8331623  63.3517361  92.4842644  24.2182016   0.0746337  29.8266435
  23.6916590   0.8701207  29.9052811  24.4951653  -0.1187786  30.7222509
  14.5109713 105.6142235  10.1907194  14.5571780 106.3377285  10.8157277
  13.8451743 105.8857059   9.5588619  79.5674419  68.1863499  84.0431213
  79.1001368  68.5875940  83.3104134  79.0176010  67.4467087  84.3016529
  15.2202916  50.5098009  86.0309792  15.7473803  51.2765360  86.2557697
  15.8354425  49.9127626  85.6051064 112.1616936  27.1099257  12.5639057
 112.1589279  26.7411304  13.4472036 111.3168430  26.8530750  12.1944630
  69.4863605  70.1730871  80.6281471  69.3887138  70.9765720  80.1171589
  70.3348970  70.2662754  81.0611916  71.5181541  72.4104023  78.3224583
  70.5768347  72.2514582  78.3923578  71.6111088  73.3553982  78.4431839
  17.9935682  38.4939170   3.1199941  17.5208712  38.7690592   3.9055437
  18.3990610  37.6617765   3.3636078 112.2789764  40.4290771  74.8282290
 112.6612568  39.5536780  74.8896742 111.4679813  40.3722763  75.3334951
  24.2199802  18.3302581  11.1262608  24.8363853  19.0584397  11.0486209
  24.6947646  17.6669073  11.6270375  59.2570066  76.9633293  85.3016090
  59.6093655  77.6057577  85.9175301  58.5069132  77.4023724  84.9005699
  71.4053249  57.8466702  91.3864326  71.4787769  57.8455305  92.3408031
  70.8472538  57.0946598  91.1882591  22.1351576  13.5508013  16.2435389
  22.3220015  14.4889164  16.2790513  22.3258615  13.3026791  15.3389394
  18.1184006  35.1228333  15.0311697  17.3628473  35.5815220  14.6637785
  18.1649649  34.3041778  14.5373392  38.0250478  55.1703119  36.4241695
  38.9278126  55.4871130  36.3944769  37.4924493  55.9655476  36.4370990
  55.4852009  67.2614861  88.3590698  55.3074932  67.5582170  89.2515945
  54.9183893  67.8026438  87.8094292  51.7914391  62.4027300  59.3802500
  52.1995497  62.5572538  60.2321911  51.8708849  61.4585638  59.2443419
  67.0519066  48.6142635  87.3078728  67.8700924  48.7649202  86.8344784
  67.2362614  47.8630495  87.8717232  64.0833282  86.0418224  90.0483036
  63.7744617  86.5436745  89.2939949  64.8977852  85.6372738  89.7495842
  31.2573862  10.8177006  21.4171910  31.6516256  10.5827582  22.2571969
  31.2191629  11.7740560  21.4296889  52.9391241  76.6928148  88.7552357
  52.9909945  77.0633221  89.6362972  52.1494913  77.0809317  88.3783054
  27.8681636  20.6868887  16.0730660  28.5927224  21.2133932  15.7353663
  28.0802226  20.5520344  16.9966877  55.8207941  47.4898911   5.0136971
  56.0985708  47.5982285   5.9232777  56.5917349  47.7264833   4.4980323
  20.3718805  13.2311273  11.8239903  20.0810742  14.1038084  11.5592432
  20.1333332  13.1695306  12.7489400  49.4887829   6.1121964  16.1132014
  49.5977211   6.0491443  15.1643121  49.0995455   5.2749741  16.3657570
   4.0970072  14.9729621  16.2865579   4.5715174  14.2234409  16.6461265
   4.0633827  15.6029117  17.0064640  33.0041909  14.7825122  22.6632524
  33.3508396  13.9305961  22.9284024  33.3410263  15.3928435  23.3192015
  71.9533110  75.2164507  65.4423714  71.0517550  75.3709841  65.7244205
  72.3292446  76.0920286  65.3514576  81.5745449   3.5779816  85.2241802
  81.2828922   4.4736090  85.3945255  81.0180283   3.0346516  85.7821274
  58.1892157  79.4338179  72.2909689  57.4327374  79.9246740  72.6119614
  58.5704994  79.9955988  71.6162395  28.5215783  27.9124808  31.3635850
  28.0655956  27.6773167  30.5554938  28.7351203  28.8394547  31.2570333
  68.5396910  85.0761890  90.7809353  68.1106615  84.2927742  90.4368114
  68.9082050  84.7986221  91.6196156  60.5696201  73.5665989  62.7955627
  60.9289837  72.9772711  63.4587288  60.4946566  74.4107199  63.2406139
  44.1650295  34.8176455  42.6130056  43.9404011  35.2805829  41.8058729
  44.4975376  33.9698339  42.3182392  12.3238850  61.7483282  13.9467764
  12.5664854  60.9308481  13.5119212  12.0090818  62.3114872  13.2396829
  49.4312239  86.1907578  64.7199965  49.2100191  87.1051788  64.8964548
  50.3355694  86.2191010  64.4075966  74.9284029  52.7215338  60.4073620
  74.2374659  53.3832312  60.4389763  74.9238968  52.3286533  61.2802076
  70.3101063  22.8310513  20.7312655  69.3774271  22.6700902  20.5883288
  70.4700565  23.6851096  20.3297281   9.0864187 100.1493835  14.3318844
   8.4686941  99.7744083  13.7041521   9.3122178  99.4207668  14.9101329
  73.1527710  37.4903727  23.4243250  73.1235313  36.5510631  23.6061978
  73.9180470  37.6013923  22.8601789  61.7985439  95.8310509  77.4695444
  61.5065765  94.9847412  77.1308184  62.5698805  96.0457897  76.9449854
  82.8888798  52.9450941  87.0058346  82.9224396  52.0355701  87.3022652
  83.4688950  52.9705334  86.2448120  54.9547243  28.5942411   8.0354136
  54.7348642  27.7359653   7.6731247  55.7767010  28.4525776   8.5050046
  81.0047340  83.4706402  72.6934338  81.2201691  83.5274315  73.6243439
  81.3772583  84.2658138  72.3124409  94.6711636  80.5796814  85.3805733
  94.5481396  81.2411976  86.0613823  94.9757767  81.0733604  84.6191788
  35.5741215  33.1737351   3.5763901  35.5594039  34.0439844   3.1780419
  36.1502838  32.6606774   3.0097839  75.8187866  91.8788052  58.7839508
  75.6035948  92.7216816  59.1833115  76.0804176  92.0973873  57.8895235
  18.5671878  14.0203321  33.5700464  18.9323771  13.2113826  33.9284706
  19.2949367  14.4219577  33.0953765  10.2895713  13.1947827  22.0844865
   9.5300859  12.9059708  21.5785170  10.2549636  14.1505003  22.0440125
  32.5966477  15.1648140  16.1482477  33.3045721  14.9506664  15.5406165
  32.9716969  15.0135314  17.0158207  57.3971844  35.8654141  17.1605122
  57.7015305  36.6503644  16.7050374  56.5342140  35.6901979  16.7852640
  86.1782265  95.0450230  84.9413300  85.4442406  95.5168629  84.5478153
  85.8360863  94.1669750  85.1092625  80.9610844  59.9662018  91.0860252
  80.8445549  60.7353258  91.6438007  81.1265182  60.3253555  90.2143192
  94.4839764  69.5024538  80.9887409  94.9221897  70.3520012  81.0384369
  93.5805702  69.6834087  81.2482548  22.1806169   5.2454948  22.7353644
  21.8627739   5.4102910  21.8476439  22.8395438   5.9237778  22.8836131
  23.9307332  13.4203088   1.3466473  23.7425900  13.0574691   2.2122003
  23.9615893  12.6578009   0.7688394  59.1007137 102.0540047  70.2790499
  59.1189194 101.4015865  69.5788717  58.5505581 101.6621590  70.9572983
  74.5000410  90.1143360  88.2552147  74.2867899  89.6849632  89.0837002
  75.2791977  90.6354332  88.4491158  20.5895472  44.9610949  16.1136222
  20.2937412  45.4455662  16.8843460  19.9515891  44.2542410  16.0156369
  36.7551231  43.6317635  35.9795022  36.6213417  42.7771807  35.5696034
  35.9685087  43.7701368  36.5070629  97.8335667   9.6569037  85.7579994
  96.9855404   9.2140710  85.7266426  97.6166821  10.5814826  85.8777618
  33.8921237  48.6658430  16.8139148  34.0680099  48.5245991  15.8836746
  33.2710028  47.9760551  17.0476627  66.8199873  88.0207920  88.3454418
  67.1468592  88.1569672  89.2347336  65.9954453  88.5060883  88.3163929
  15.9273899   9.9914140  24.7355986  15.2680576  10.1527143  24.0606952
  16.4640391  10.7840145  24.7404528  50.3092480  38.4140587  22.1274114
  50.8767414  37.9333401  21.5248418  50.4775000  39.3356776  21.9310904
  93.1243896  33.7695193  80.5832958  93.0150414  32.8491759  80.3440380
  94.0668583  33.8723493  80.7152462  48.7326431  33.5591722   7.9652369
  48.5730839  32.6753545   8.2963544  48.7634706  34.1068792   8.7496465
  25.5241442  58.0930710  75.0748301  25.5606556  57.2848129  74.5633459
  25.5953002  58.7916088  74.4242859  34.4334078  59.2532921   8.0712759
  34.8330331  59.8923874   8.6612648  34.0343738  59.7819901   7.3802727
  34.8132539  18.7598014  40.0882339  34.9013948  18.8883638  41.0326576
  34.3925047  19.5607591  39.7757173  93.9630127  86.8105030   6.5018964
  93.7235737  87.6621151   6.8674994  94.8934650  86.7154884   6.7055070
  82.4285316  76.8507147  80.0978088  82.2813416  75.9070396  80.1614380
  81.5551186  77.2213602  79.9712801  62.0460129  72.0878839  45.7389832
  62.1346378  72.7712774  45.0746393  61.5355873  72.4975920  46.4374352
  61.9581747  71.2946892  78.7157440  61.2813854  71.8810034  78.3774757
  61.7532015  71.2039518  79.6463251  56.0021114  71.9802570  84.7059536
  55.4642391  71.9575167  83.9144897  55.3810835  71.8444204  85.4215717
  20.0967360  11.9103849   3.7556449  21.0167027  11.6908050   3.6084083
  19.7414696  11.1535299   4.2216790  14.3720257  93.6368179  87.1705341
  15.2000582  94.1138554  87.1155167  14.1045237  93.7260342  88.0852509
  53.3588171  52.0922804   7.4266773  53.0048704  52.2360468   6.5490174
  54.1748857  51.6138744   7.2804248  11.7910099  11.2898123   5.7158345
  11.2230349  10.5800438   5.4160619  12.2274637  11.5988529   4.9219614
  85.8254242  82.9582787  91.6714573  86.1887360  83.3948708  90.9009838
  86.5420914  82.9565620  92.3059845 111.2579250 104.8725033  70.4819441
 111.3973427 104.9766541  69.5406961 111.7868614 105.5636787  70.8803463
  13.6756217 100.5603886   0.5561469  13.9261711  99.6410179   0.6468251
  13.2044840 100.5992699  -0.2761687  30.4566598  83.0974579  89.3933868
  31.3507128  82.9725456  89.7116566  30.3315163  84.0464401  89.3970394
 105.3990746  61.1696291  81.2534714 106.1779022  60.7391024  81.6060352
 105.7393742  61.9244432  80.7731819  71.9264030  78.1637239  76.7807913
  71.4629745  78.9465618  76.4830923  72.8528118  78.3978558  76.7244482
  35.6549335  14.4683349  18.7713730  35.8854342  15.1830542  19.3649030
  35.3293967  13.7754154  19.3459332  86.7900467 104.0904999   4.3564352
  86.6209984 103.1483936   4.3662399  86.1304092 104.4583321   4.9445021
  40.1765108  29.4196177  19.8865008  39.5650291  30.1538253  19.9436426
  40.8941746  29.7472548  19.3444300  57.6199293  74.0864801  83.5640907
  58.3395767  74.2835522  84.1636753  57.0625114  73.4790182  84.0504169
  43.1309795  49.6990728   3.1117186  43.6423779  50.0488234   3.8413611
  43.2704592  48.7529993   3.1532425  25.1287651  29.0351343   7.9568249
  25.6401062  29.7580290   8.3204007  24.8788977  29.3344116   7.0826221
  74.2857838  88.3085251  51.1269569  73.4892988  88.2045078  50.6063509
  74.0461969  87.9905128  51.9974136  75.5793715  89.3497944  71.6464615
  76.1210680  89.3543911  70.8572960  74.6797562  89.3517876  71.3194752
  48.5478783  38.1104159   2.9655308  47.8437948  38.7280321   2.7679247
  48.1914806  37.2555685   2.7237698  68.8776970  53.7692690  83.9882374
  69.4849730  53.0596495  84.1977310  68.5673571  54.0780592  84.8394489
  71.4721680  89.8498058  77.3932266  71.0614061  90.6345177  77.0302725
  72.3027229  90.1594925  77.7544785  23.4782386 101.9971657   6.0884136
  22.9067206 102.1036911   6.8488413  24.0866494 102.7342606   6.1409342
  64.0036726  73.9785004  91.1284542  63.3518839  74.6695757  91.0109138
  64.1048717  73.9035988  92.0773315  80.3869438  68.5497618  91.4720345
  80.8835983  68.0807638  90.8015060  79.4707012  68.4116411  91.2318993
  66.5922165  95.2122974  90.3616428  67.0461702  95.8976746  90.8519650
  66.5130806  94.4869614  90.9812069  52.4753189   5.3687567  41.7380619
  51.6804457   5.8382905  41.4851856  52.8519821   5.0719738  40.9096479
  67.2163963  28.9249134   7.9908377  67.3563433  28.9850926   8.9358371
  67.4837542  28.0338907   7.7653819  76.0848522  90.5008411  92.0924759
  75.8818817  91.0442162  92.8539085  76.9135523  90.0766277  92.3150063
  75.9664488  76.1566544  74.8158121  76.0871029  76.2946272  73.8763237
  75.0876665  76.4905596  74.9960184  61.0145664  12.7359176  50.0927210
  60.3728628  12.0340931  50.2017784  60.6045723  13.3414841  49.4751263
  56.1175060  10.1426685  45.9389257  55.1971054  10.0931942  46.1970806
  56.2616825  11.0682905  45.7422829  34.7640443  21.0791469  20.4714394
  35.6070089  21.4734721  20.6953740  34.1527748  21.8154955  20.4520440
  65.6676388  46.1873627  30.1232505  65.5057001  45.5852413  29.3969846
  65.6622887  45.6305075  30.9017825  43.3892441  97.7398968  75.6732655
  43.8935614  97.1014786  75.1689577  43.5420847  97.4981594  76.5867376
  77.4158049  77.8654480  64.0067911  77.1384144  77.2090006  64.6458244
  77.4383116  77.3943424  63.1738567  23.8095641  13.5215771  24.3280482
  24.2850542  13.9810133  25.0201917  24.4706011  13.3481002  23.6578465
  77.0009422   4.3670735   1.5777111  77.8388357   3.9042935   1.5788437
  76.6019249   4.1379720   0.7383483  96.6320229  95.1015472  88.2240772
  95.8289146  95.5377483  87.9395008  96.6866970  94.3188858  87.6757336
  40.0538254  11.9711351  20.6526089  39.4009209  11.2750673  20.5788517
  39.8613834  12.5584579  19.9216855  58.1470585  65.9673786  83.0061626
  58.0750608  65.0434923  82.7664185  58.2544184  65.9603405  83.9573002
  21.3647413   0.7948422   4.0779641  20.7120609   0.8473261   4.7761655
  22.1117163   1.2925428   4.4104654  59.8812294 101.0507679  61.5180445
  59.8504877 100.1524258  61.1890125  58.9961958 101.3874912  61.3781595
  19.8487532  94.9400997   9.9316460  20.0770450  95.1604176  10.8347368
  19.5146084  94.0444660   9.9807554  68.8792801  80.9824562  55.0445652
  69.5561981  81.6591549  55.0541306  68.9265585  80.6088066  54.1645718
  40.5948448  40.2039337  26.8466496  40.1638460  40.0635719  26.0035753
  41.5283680  40.2311087  26.6368246  37.4410892  36.5237379  50.6700039
  37.4307942  35.6656766  50.2459049  36.8283939  37.0514369  50.1577806
  66.4850664  99.2282391  70.7173681  67.3495626  99.3744373  70.3332996
  66.0139799  98.7170410  70.0593519  67.3201466  87.6904964  44.5523214
  66.3887691  87.9100323  44.5762682  67.5465918  87.5074196  45.4641533
  58.0451775   9.0215576   3.5284469  57.9002094   8.7608260   4.4379714
  58.3715963   8.2295454   3.1013635  46.1871576  34.4362044  25.0910711
  46.3395166  34.8580074  25.9367085  45.2385855  34.4781899  24.9699259
   8.6792457  33.7879634  27.8019595   8.1998038  32.9618788  27.8648400
   8.4457880  34.2617488  28.6002421  56.4868593  44.0120125   5.9700245
  55.6992483  44.2557526   6.4563280  56.9869089  44.8252773   5.9008497
  69.7280645 100.1418400  76.0005140  70.1933813  99.9908447  76.8232632
  70.3038597 100.7222748  75.5027294  46.8131542  14.7877550  35.5989552
  46.3432884  13.9640510  35.7292342  47.7099085  14.5981908  35.8748722
  41.4482164   2.4727096   0.6772064  40.9022427   1.6864890   0.6748707
  42.3412180   2.1444976   0.5720695  46.5168953  19.5675123   5.4711109
  46.2945986  18.8280964   6.0368675  47.3844862  19.8431325   5.7669961
  81.6368961  93.6708832  64.0859318  82.5175476  93.4368420  64.3790340
  81.2770367  92.8564358  63.7346315  52.7393293  71.1514568  89.8962879
  53.6897993  71.2560558  89.8526955  52.5704575  70.3141069  89.4643688
  43.1238174  18.6750770   8.0558628  43.1907797  18.8935816   7.1263450
  42.6013708  17.8732920   8.0763918  41.2318850 106.1660576  42.9374599
  41.7047596 106.7057228  43.5710144  41.3535500 105.2691174  43.2488012
  74.2214489  85.9304047  66.9885683  73.7918758  86.6390419  66.5094662
  73.5744238  85.2251720  67.0041275 109.1528416  99.8944378   8.8249600
 109.3930244 100.6641674   8.3091509 109.1755486  99.1703033   8.1993896
  97.9270744   3.1762356  56.0427570  98.8154984   3.2074770  55.6878567
  98.0159378   3.4987852  56.9395828  65.8040667  19.2648041  15.3760993
  65.8021975  18.8027382  14.5378137  65.4678774  20.1369166  15.1696265
  21.1169171  23.5885882  28.6532402  21.4495468  24.4861364  28.6535263
  20.2465415  23.6555934  29.0459085  32.2509384  13.8280153   5.5090928
  32.8894186  14.1658163   6.1371589  31.9287825  13.0190670   5.9066498
 106.8579578  73.7058926  82.9774284 106.6532516  73.3704996  83.8502598
 107.6196480  73.1978559  82.6981926 108.2216454 100.2693367  77.6028824
 107.5509930  99.6212769  77.3872995 108.6790371  99.8986912  78.3576345
  82.4189663 104.2058277  14.9211597  82.7704620 103.9228344  14.0770066
  82.4392986 103.4184933  15.4651546 100.6072617  21.8936753  91.5376186
 100.7884884  22.2462058  90.6663513 100.5330276  20.9488964  91.4030361
  44.1196346  43.5483742  41.2271214  44.0902185  42.8316307  41.8608761
  44.9441338  43.9980268  41.4121723  25.3657317  52.7202797  10.4882967
  25.2700377  52.4493694  11.4013600  26.2050486  53.1796885  10.4614794
  53.2721901  98.3191776  64.9101543  54.0219784  97.8803539  64.5083141
  52.5091267  97.9236794  64.4887877  46.9213295  30.5385995  27.4960017
  46.4965868  31.3163447  27.8578544  46.4306879  29.8041964  27.8649998
   6.8806082  33.4236455   9.5705682   6.7400646  34.2761660   9.9825019
   7.1767575  33.6317205   8.6844349  52.0108843  36.1373377   6.1542922
  52.5578594  36.5733528   5.5008841  51.2230396  36.6784358   6.2067235
  26.6114759 102.4072170  69.9426508  27.1616960 102.9988670  69.4293928
  26.1232877 102.9836941  70.5305099  80.0147152  95.9570980  85.1233006
  80.5191422  95.4970360  85.7942104  80.3039551  96.8672371  85.1882267
  72.9493570  64.2296219  54.2856503  73.8166094  64.1480446  54.6824551
  73.1244946  64.4372272  53.3677912  93.2023621  55.9135628  71.4314032
  93.4299278  56.8283176  71.5977621  92.5651741  55.9511805  70.7181025
  74.2719269  71.3973379  75.6912184  74.1813087  70.8911419  76.4985514
  73.5556793  72.0314646  75.7244492  39.3216681   0.4888709  18.3324885
  38.8026834   1.0860703  18.8712275  39.5617199   1.0067526  17.5641108
  44.2656612  21.2659645  10.9566069  43.6699295  20.7048726  11.4531064
  43.6893368  21.8374634  10.4491925  40.2659321  12.9493368   7.1730793
  39.4376278  12.9294455   7.6524019  40.4330063  12.0347095   6.9455391
  76.8879414  96.3742256  84.9554348  76.5530729  95.6274605  85.4518604
  77.6215172  96.0187435  84.4537067  71.1125612  64.8396826  88.2406330
  71.9766283  64.4709206  88.4240246  70.8886576  65.3300905  89.0315819
  84.2764854  75.1998568  90.9080124  83.5112190  75.0525522  91.4637947
  84.5693970  74.3213034  90.6659794  50.2394962  75.2488041  85.7176208
  49.3237543  75.1176357  85.4717541  50.6989145  74.4993830  85.3387547
 106.0437584 104.6180344  77.6435280 106.4942169 105.3641319  78.0393219
 106.1644840 104.7375774  76.7015266  50.2566004  90.0598431  89.4734955
  49.7518253  90.8470821  89.2693233  50.8326960  89.9421215  88.7181950
  79.1593266  74.8177862  86.2914848  80.0300789  74.6133757  86.6324139
  79.3066072  75.0291014  85.3695869 103.2750988   3.5095716  15.1330352
 103.5903931   4.3954468  15.3120410 102.3320961   3.6123133  15.0048184
   0.8006087   1.9773440  93.0647568   0.6072727   1.1136870  92.7001332
   1.6745987   2.1863417  92.7350695  75.8207273  25.7450795  84.4044495
  75.8366346  25.0815821  83.7147045  75.3710890  26.4915419  84.0084076
 108.0065632  34.0925145   4.4960213 108.1656456  35.0340581   4.4295341
 108.8207912  33.7365746   4.8517859  83.2542610  76.2952900  71.7024565
  83.9789200  75.6977510  71.8869734  82.6908112  76.2338352  72.4738073
  41.5825701  35.9679747   4.2465812  40.9747982  35.9173322   3.5088253
  41.2277174  35.3562593   4.8916531  50.0455236  24.1788268   7.4405032
  49.1598845  24.0794730   7.7897936  50.5003357  23.3809948   7.7103949
   5.0857210  15.0353789  77.8344679   6.0040653  15.2280056  78.0236006
   5.1156253  14.4302034  77.0934534   8.2377827  46.2025261  51.9812202
   8.8334495  46.5825129  51.3354492   7.3633468  46.4094782  51.6514254
  62.6910257  33.2467628  22.3820066  63.4853077  33.0761361  21.8758059
  62.4900246  34.1665792  22.2094750  48.7963295  98.7349510  80.2378845
  48.8925791  99.6828270  80.1456261  48.5429573  98.4338856  79.3653059
  29.1027260   1.2073612  12.4462295  28.8637972   0.7240297  11.6553211
  29.6240783   0.5880928  12.9570436   2.7198660  94.9190903  11.9901359
   2.3369360  94.6185493  12.8143156   2.7568990  95.8716583  12.0765352
  32.1950483  11.8206429  16.2421489  31.8114257  12.3879802  15.5734229
  33.0433869  11.5640354  15.8806205  47.5767994  74.4309759  82.7145672
  48.0962229  74.7575521  81.9798756  47.3830605  75.2100086  83.2359219
  75.1151419  64.4359159  83.8868523  74.8848438  64.8241901  84.7309113
  75.9052896  63.9259911  84.0653896  39.0245581  32.8847337   3.2828450
  39.9800992  32.8868794   3.3391327  38.7347293  33.2568216   4.1157803
  40.5400753 106.7099571  52.3713493  40.3065395 106.4753342  51.4732170
  41.4434385 106.4093113  52.4702549  69.7090292  79.6566105  61.9416666
  69.6880341  79.4112206  62.8666401  69.6542549  78.8244677  61.4718008
  58.1292295  66.7551708   2.2689110  58.0363894  66.7335081   3.2213515
  58.7012482  67.5040531   2.1009931  76.0277081  77.9256153  86.7054558
  75.9164476  78.2605553  87.5952148  75.3114033  77.3006296  86.5934944
  59.3179703 106.6787529  89.5815372  58.4499359 106.9052601  89.9153709
  59.8557806 107.4474144  89.7716618  11.4140821  72.9086781   6.7822385
  11.0798883  73.0684376   5.8996153  11.5152299  71.9581223   6.8316323
  87.5747013  86.7436218  89.1495132  86.8624210  87.3507786  89.3501377
  88.3542633  87.1585560  89.5187664  22.8871918  18.9991200   1.5461203
  22.1597028  18.3821988   1.4661139  23.1646299  18.9251578   2.4592409
  25.8668280  82.4241924  50.5216980  26.4002013  82.1176815  49.7883511
  24.9833155  82.1155834  50.3207159  72.2989416  83.7508869  74.6106911
  72.7282333  84.5971870  74.7360897  71.9282055  83.5410404  75.4678679
  47.2023630  36.8270040  20.7871890  47.0589924  36.0905838  21.3816309
  48.0798149  36.6818309  20.4332972  50.6990099  14.0184987  15.2048826
  50.2995157  13.1527305  15.1207483  50.9679174  14.0700901  16.1220849
  75.3303528  51.7921925  17.4975491  74.5371771  51.2862015  17.6738346
  75.9308052  51.1641407  17.0960104  45.2400923  88.3434105  83.5730648
  46.0749769  88.1106853  83.9793015  45.4233456  89.1525555  83.0956364
  25.5678725  86.6612434  81.0652828  25.7080579  86.3027191  81.9416714
  25.3715515  87.5862885  81.2135220  12.2134686  71.1489105   2.2301283
  12.7263331  70.7639313   1.5194994  11.6791773  71.8191481   1.8040475
 105.5056953 103.0378914   4.6265432 106.1752033 102.5651073   5.1209909
 105.9776306 103.4141159   3.8836011   5.7948720  98.8621807  73.2290030
   5.4029489  98.8367271  72.3560858   5.1948065  99.4002533  73.7453699
  35.9315848  26.4753485  24.7595167  36.3884544  27.2517872  25.0830102
  35.0028968  26.6881633  24.8516083  64.2327642  96.1560249  71.9182444
  63.6911821  96.7882061  71.4457369  65.0293589  96.0829163  71.3925791
  25.3555655  31.8991804   9.8095173  24.9912310  31.4511609  10.5729091
  25.4082251  32.8177714  10.0734341 112.1435261  99.2746735  83.5220242
 113.0454159  99.5934582  83.5566330 112.2240257  98.3553314  83.2679653
  31.8550634  23.0554748  47.4245453  31.1156869  23.6591911  47.3532581
  32.3812366  23.4050512  48.1436920  54.1723061  64.6005583  91.1973858
  55.0979614  64.4330883  91.3744545  53.7186718  64.2911100  91.9814014
  69.0400362  55.8573532  91.3813972  68.6519861  55.8937120  92.2556496
  68.4271097  56.3402843  90.8270168  57.9651737  36.3669920  47.4834156
  57.4295473  36.2113738  48.2613039  57.7061129  37.2387075  47.1847010
  32.0405173  25.3842330   8.0344659  32.6022410  25.3354740   7.2609544
  31.1683321  25.1575446   7.7117646  42.3813152  40.1995134  10.3988492
  41.8230915  40.8684826  10.0024867  42.1243429  39.3856239   9.9655128
  66.7823792  92.8852749  77.1940660  66.0501051  92.4002647  77.5745583
  66.3830709  93.4266090  76.5130806  90.3040123  73.6132050  78.7010574
  89.8221588  74.1883421  79.2954206  90.6784248  74.2037773  78.0473948
 107.7614021  25.6293201  19.8489201 107.4725533  26.4376760  19.4254100
 106.9504452  25.1909137  20.1065612  95.2016354  53.6888981  87.5304699
  95.8200550  53.2909679  88.1432056  94.4997597  54.0288591  88.0854797
  90.8145332  79.5907021  24.8977160  90.2570629  79.9488306  24.2069173
  90.9898376  80.3347301  25.4738474  69.2853355  62.8703690  84.8662472
  68.7285900  62.5904226  85.5928040  68.7730312  63.5427904  84.4172192
  43.2527781  20.7856178  25.0045323  43.4524822  21.6857696  24.7474694
  43.1646776  20.3139448  24.1762853  32.4733591  50.9424400   7.0998102
  33.3619380  51.2850809   7.0036143  31.9081283  51.6562557   6.8044925
  55.4227495  18.9484239   2.9440123  55.2712917  19.2514980   3.8392437
  56.3139582  19.2334640   2.7421981  27.4131346  16.8153775  23.4590077
  27.7000117  15.9330618  23.6944866  27.8712201  17.3882830  24.0739608
 109.6725941   5.0724578  23.6992192 109.9002361   5.9968680  23.7985897
 108.7848759   5.0052589  24.0508866  77.3513365  75.8120489  82.1709251
  77.6224852  76.0724926  81.2906551  77.0595503  76.6256475  82.5822067
  31.5071630  34.5603251   4.6290827  31.6590285  33.9277625   5.3312463
  30.9241772  35.2130842   5.0167227  23.4439921  60.4119253  35.5797458
  22.8988028  59.9464798  34.9454260  24.3002224  59.9888372  35.5157018
  65.8229399  67.4482107  83.8383865  65.7248831  66.5066290  83.9799309
  66.3626242  67.7456045  84.5708752  33.0657077  14.4938469   0.8460154
  32.2507191  14.6780562   1.3130203  32.9272246  13.6319208   0.4534107
  80.5147076  65.0042105  82.1078205  81.3456249  65.0507116  81.6349030
  80.7264137  64.5425653  82.9191685  54.9018860  29.5828938  39.2938638
  54.4296169  29.8729205  40.0743008  55.1188135  30.3919959  38.8306952
   9.4315720  21.2831426  79.0828466   9.5804429  21.9577193  79.7454309
  10.3094184  21.0301638  78.7971592  26.6256666  30.6206870  14.0584481
  27.3273468  31.1776638  14.3955743  26.8828416  29.7333932  14.3090534
   0.4712680  19.6658719  87.2284508   1.1699202  19.3104589  86.6790962
   0.0615644  18.8959241  87.6228619  83.7348938  90.3305435  73.0951643
  84.0175533  90.2968597  72.1812725  84.0626717  89.5164776  73.4774017
 100.7034111  79.9610710  79.5669460 101.5418625  79.5245743  79.7176075
 100.9292603  80.7500839  79.0743160  14.9981320   7.0648587   1.4118224
  14.7369468   6.6844863   0.5731741  14.1731000   7.3080415   1.8318401
  91.9515610  55.0334549  66.4264154  91.3134193  54.5142078  66.9156981
  91.4652443  55.3588486  65.6688929  20.8804631  34.5317483  39.9565053
  21.1505318  35.4341602  39.7863626  20.0033092  34.4689345  39.5784998
  14.0218079 103.8540173  32.8491807  14.5205247 104.0402222  33.6446929
  13.3182621 103.2728195  33.1380892  89.3842220  84.0164089  85.6649971
  89.3227768  83.5339546  86.4894390  89.0211964  84.8792648  85.8647919
  56.5037346  45.2523899  20.3929615  57.3390579  44.9448395  20.7449222
  56.7292452  46.0352325  19.8904312  38.1181931  37.5095916  10.4210138
  38.0368638  37.4648762  11.3737035  38.7853622  36.8575239  10.2067161
  87.3289108  39.9152637  29.1052675  86.8960857  39.8456144  28.2543588
  87.3053932  40.8499813  29.3101501  74.0796041  31.8948984  31.8447280
  75.0350094  31.9081688  31.7876649  73.7995434  32.6667929  31.3528156
  82.4754810  88.7365627  87.3373985  82.2518539  87.8174591  87.1908379
  83.1558323  88.7131596  88.0103111   8.0069631  26.6519189  83.8183498
   8.3540642  26.2678313  84.6234798   7.7090573  25.9015799  83.3040810
  71.0209131  53.0053377  25.4424214  70.1519585  53.3004761  25.7145214
  71.3196611  53.6751699  24.8273587  55.6472158  16.8813586  25.2359128
  55.0381804  16.9641089  24.5021152  55.0931215  16.6540146  25.9825897
  59.4431734  28.0704832  46.8187952  59.1972923  28.3174515  47.7102995
  59.8336363  27.2013283  46.9101000  93.2393265  82.9198456  42.5251722
  93.5268974  83.7615299  42.1714687  92.3845100  83.1032753  42.9148674
  51.3120127  18.1400597   1.5832569  51.2130070  19.0659595   1.8049334
  50.7752228  17.6804733   2.2289109  70.9992886  74.9289703  83.9157200
  71.1527681  75.8207655  84.2277718  71.8748474  74.5784473  83.7521267
  37.2075748  22.5691152   7.9814905  37.3161912  22.7572370   7.0492649
  37.4992204  21.6626000   8.0784678  31.5984416  40.0398350   8.4916002
  31.3258338  40.4768324   7.6847863  31.5117884  39.1061568   8.2993227
   4.3195492   4.5165458  87.2025585   5.1864350   4.7266504  86.8552876
   3.7175789   5.0480264  86.6816044  71.3037729  88.4883690  87.7008343
  70.8500910  87.9869461  88.3783054  71.9689465  87.8882599  87.3637104
  54.8601913  30.8330584   1.8312563  55.7949638  30.9006214   2.0258699
  54.4647408  31.5700197   2.2968102  32.8118038  72.3527479   9.9915779
  33.0468154  73.1921148   9.5960212  32.6141644  72.5648499  10.9038198
  92.5832176  86.7791748  60.4534292  92.1584225  87.1935749  61.2044668
  93.5129166  86.7667961  60.6808567  93.9432526  33.7862420  89.8977470
  93.0796432  33.7109995  89.4918633  93.9214325  33.1636143  90.6244469
  37.5727654  37.9796648  58.1105852  38.2983661  38.3223391  58.6324215
  37.2376990  37.2425961  58.6211634  68.4657383  72.1529055  47.7887154
  68.9339733  72.4273777  48.5771656  68.8395548  72.6889610  47.0893335
  59.5466423  37.8612804  23.7829232  59.5722818  38.3563352  22.9640841
  59.3820715  38.5210299  24.4566250  79.3692732  74.7754669  83.4210777
  78.6302519  75.2712202  83.0685043  79.1334820  73.8590288  83.2769585
  76.0516930  74.6146727  92.6744747  75.5068493  73.9174700  92.3093891
  76.6610622  74.8360491  91.9702816  89.7794533  36.5660334  72.9839087
  89.6799850  37.3932409  72.5126696  88.8826561  36.2705207  73.1409645
 112.0037460  75.3835869  86.9333649 111.1227894  75.0940895  87.1707344
 112.5861454  74.7667551  87.3767090  47.3355675  35.4653072   6.3707882
  46.7195940  35.0572681   5.7622570  47.7167225  34.7318649   6.8535113
  91.5697002  92.8068924  75.0279665  91.7081928  93.7318802  75.2315569
  92.4482155  92.4632168  74.8657227  78.0030251 105.5671787  89.5385361
  78.2714748 105.6612492  90.4524994  78.8253975 105.5211735  89.0508747
  14.4679856  91.4864635  89.9009037  14.5295155  91.2436485  88.9770603
  13.9129996  90.8104515  90.2897739  80.6084061  13.7978184  48.2724619
  80.1238251  14.0652466  47.4915075  80.1735497  14.2548490  48.9923620
  61.6947937  16.4526939   8.3436209  61.9362879  16.3058841   7.4290943
  62.4589062  16.1637127   8.8424742  54.7009468  32.4602628  19.8555017
  54.1241312  33.0480862  20.3433323  54.8237705  31.7090893  20.4359174
  67.9951286  49.2821550   7.1128798  67.3533440  49.9791479   6.9767100
  68.6931324  49.6952438   7.6211923  92.0639610  81.0712147  90.9362602
  91.4513779  80.3498745  91.0799313  91.8248749  81.7232704  91.5949631
  70.7178497  26.0503936  31.9850206  71.0197115  25.8655167  31.0956788
  69.7891283  26.2590671  31.8842006  44.6719122 102.6476574  61.7194319
  44.9301386 103.5692978  61.7077875  44.3680620 102.4727821  60.8287430
  40.2758121  21.7615318   6.6795295  39.8904490  21.0321307   6.1940396
  40.2927256  22.4843931   6.0522997  49.7936773  31.2621474  19.8564506
  49.9158955  31.5825677  20.7501078  49.1706800  30.5407071  19.9437821
 107.6610374   2.5837097  83.1091690 107.9475403   2.8185341  82.2265530
 108.4385872   2.2068821  83.5210514  97.1901798 100.9436035  82.2376442
  97.9888916 101.2319279  82.6794338  96.9235992 100.1572418  82.7138805
  81.2854767  90.8058739  86.1652088  81.8179989  90.0770950  86.4838505
  80.4580498  90.4016685  85.9040546  60.2662849  89.7490883  77.0509148
  59.7587395  90.2671528  76.4262199  59.6164751  89.2020893  77.4922323
  53.6582708  41.6577721  12.2278500  53.5812712  40.8855629  11.6674948
  52.7537918  41.9113207  12.4118662  91.8777847  87.9457474  85.1208496
  92.5575256  87.4534798  84.6605778  91.8937874  88.8126755  84.7153759
 103.8913250  89.0503025  82.9134941 103.6434364  88.2578468  82.4372578
 103.3082104  89.0659142  83.6724186  68.7221003  94.0720558  88.6996746
  68.2931328  93.2224178  88.5980511  68.2089281  94.5205975  89.3717670
  89.3551922  71.5691423  87.6643372  90.1511288  71.0779667  87.8679466
  89.0023899  71.1408758  86.8843746  60.3760195  55.2111387   2.8247875
  60.9702063  55.3625345   2.0897689  60.6433201  55.8510256   3.4845835
   9.1828370  64.8914957  72.5128460   8.3197707  64.6583080  72.1708345
   9.5462579  65.4886389  71.8589497  44.6162796  46.3493633   9.7274566
  45.2067614  46.7872572  10.3404903  45.1902056  45.8015728   9.1919494
  62.1712303  32.3451972   3.7177801  61.3995552  32.7594781   4.1039413
  61.8463135  31.9324827   2.9175732  37.3287773  37.8466892  20.3271103
  37.0474005  36.9933081  19.9972677  38.2314563  37.9358673  20.0214076
  46.5431309  52.9522324  31.5738392  47.1266842  52.9842138  32.3319101
  46.5825844  52.0422888  31.2794304  76.8401146  85.7278442  88.5039425
  76.3166904  86.3670731  88.0205631  76.5015936  85.7683468  89.3983650
  21.2808061  18.2077873  22.7350187  20.8346152  17.3767233  22.8977370
  22.0436573  17.9708242  22.2076297  58.3338261  50.5841494   4.9680358
  58.2763052  49.7468853   4.5076942  58.8929224  51.1258078   4.4110391
  31.3645673  54.5913410   9.6035987  30.7054663  53.9873171   9.2615849
  31.8854308  54.0610456  10.2066946  67.1388817  62.6166534  89.1673279
  66.6633987  62.3968220  88.3661938  66.4886284  63.0492640  89.7207260
  84.0906334  78.4234238  70.0106144  83.5302544  78.3186245  69.2417002
  83.7001419  77.8514099  70.6713295  68.0095959  12.7950454  17.8417230
  67.9200792  12.5637281  16.9172180  67.6733923  12.0327425  18.3129919
 110.5494499  92.8358269  84.0792847 110.4153824  92.4024200  83.2364178
 110.6341076  92.1180725  84.7068882  91.0766697  92.8709412  81.9095898
  90.4945374  93.6230850  82.0174217  90.7922554  92.4632835  81.0915661
  92.2470093  82.9085732  84.7632885  91.5756416  83.4283638  85.2052307
  91.8644619  82.0340347  84.6920013  66.6333818  40.6679821  12.0568264
  67.0908308  40.2675247  11.3174987  66.9932079  40.2287817  12.8274500
  92.8582764  89.9128819  72.4205303  92.7677917  90.8139324  72.1104670
  93.7286186  89.8825455  72.8177881  88.4468937  73.1578445  37.9751229
  88.4068775  72.7942419  38.8596725  89.2299843  72.7647543  37.5897813
  99.2495346  73.6441135  68.1017685  98.7298298  73.9350939  68.8510799
 100.1113033  73.4483528  68.4695339  82.4155331 101.6453362  80.6648731
  82.5215149 102.0544529  79.8060226  82.7431011 100.7536221  80.5474663
 103.8368511  95.0112629  81.1734200 103.1907082  94.6929932  81.8038368
 103.3149242  95.3886127  80.4653072  50.9140730  64.7831059   0.9487132
  50.0066471  64.4803286   0.9825140  51.2130451  64.5462656   0.0707869
  37.4369979  22.0947742  65.8861208  36.5227342  22.3225999  65.7174540
  37.8296208  22.9048824  66.2113953  10.8121693  10.5866623  42.2263384
  10.8856988  11.1158085  41.4320946  10.1584363   9.9213815  42.0112419
  48.1097937  26.4229798  44.3081522  48.4028912  25.8520937  45.0183725
  48.8604593  26.9899559  44.1313076  94.9007320  71.0454130   0.3874848
  94.3668461  71.2214565  -0.3872488  95.8025455  71.0701323   0.0675668
  39.1718698  29.9985647  15.2409410  39.0171576  30.8373284  15.6754220
  40.0376177  30.0909352  14.8432291  33.9534187   0.9408855  57.4751377
  34.4121790   1.2834907  56.7080688  33.2384562   0.4176939  57.1127415
  49.4580841  20.4928493  60.8405447  50.2923775  20.9330797  60.6781054
  49.4208860  19.7994685  60.1817036  96.8606091  55.0124454  18.9550710
  97.4468231  54.9370337  19.7079992  96.0593414  55.3949070  19.3127358
  16.9570899   8.2781440  70.1911926  17.3895085   9.1175133  70.3483725
  16.0414243   8.4333378  70.4229355  46.7145538  31.6865683   4.2007226
  46.8245459  32.6305127   4.0862527  45.7664204  31.5562534   4.2178625
  62.3804283  76.6875744   2.9572278  62.5933933  75.7615852   3.0730784
  61.5831852  76.8160963   3.4711486  81.9561100  38.5125709   2.0706581
  82.7054310  37.9245067   1.9762088  81.4920616  38.1872296   2.8420466
  21.9107747   1.2828685  72.3914623  20.9938860   1.1349168  72.1598196
  22.3985791   0.6689788  71.8424463  20.5407190 105.1715851  88.2675648
  20.6622314 105.1424122  89.2165756  19.6024895 105.3209209  88.1507111
  38.6023569  76.5892506   3.6728686  38.6685276  77.0268536   2.8241298
  37.8667450  75.9848261   3.5740000   3.3503100   8.8224143  65.8957767
   2.8183448   8.0320925  65.9887123   3.5237086   9.1015041  66.7948198
  54.8407888  37.3956299  24.7003078  55.2184677  37.2759056  25.5716610
  54.0349483  37.8887439  24.8542356   2.2958419  81.8112278  67.5244284
   1.8184009  82.6161766  67.3235893   1.9370124  81.5229893  68.3637047
  56.3290405  82.6257324   1.1745404  56.1630964  82.4872112   0.2420676
  56.4287853  81.7440701   1.5336297  84.9282837  82.1577930  78.8796759
  85.7654476  81.7102146  78.7569523  84.7155476  82.5091743  78.0150938
  54.5093012  23.2837677  81.7558575  54.5333052  23.6478806  80.8709335
  55.4000330  23.3994436  82.0866871  87.1598911  24.2778087   6.2828523
  86.7937374  25.1507926   6.1412150  86.4024162  23.6932039   6.2564921
  23.1907392  32.1951652  72.7172613  23.5974598  32.4876833  73.5328865
  23.9257121  32.0522928  72.1209145  37.6777577  13.2850575  82.5345802
  37.2375488  14.1349089  82.5487041  37.8098917  13.0991828  81.6049385
   7.4669474  24.0139508  63.6145067   7.3918897  23.1699944  64.0598536
   8.1376761  23.8733125  62.9462433  32.5297737  33.7745929  78.8262177
  32.0067596  34.2623091  78.1899643  33.0802703  33.2003450  78.2938433
  69.3964863  65.8770084  16.2381005  69.1626501  66.5406179  15.5891204
  70.2990818  66.0853720  16.4792049 102.0731068  58.5756969  65.5748558
 101.5008450  58.8828993  66.2779713 102.2012997  59.3434095  65.0177050
 111.2976933  99.0432453  89.8632240 111.0026264  99.4023800  90.6999969
 111.5458202  99.8104763  89.3474483 103.4063148   4.0696254  82.0007038
 102.8246403   3.5030687  82.5075531 104.2875385   3.7733215  82.2284889
  26.0885811   3.5447636  82.5817299  26.8174505   4.0639040  82.9215431
  26.3952327   3.2289824  81.7317486  91.7223072  47.3382998  12.3532283
  91.5304279  48.2067108  11.9992757  90.8959389  46.8611193  12.2781765
  12.3764229  19.6756268  83.8568592  12.2821629  20.6129527  84.0264702
  11.4904928  19.3798482  83.6473942  24.3477964  35.1764345  71.0011148
  23.8622952  35.6906939  70.3560925  25.2481794  35.1731992  70.6762600
  74.3429422  55.4703617  32.3768234  75.0236607  54.8932362  32.0307326
  73.9795828  55.9025383  31.6038918  89.8128510  94.4291401  92.0003986
  89.0938187  94.7285175  92.5568104  90.4598141  95.1331425  92.0456123
  98.4849358  73.2184124  90.6650925  99.1918373  73.6772966  90.2112770
  97.8314495  73.8961983  90.8376980  25.6044674  14.5005953  66.0295916
  26.2593985  15.1859963  66.1619616  25.7459712  14.2045486  65.1303911
  90.8122063  78.2237768  90.7904339  91.7351341  78.2919788  91.0349464
  90.4771900  77.4997187  91.3193321  38.0014229   2.2677097  88.4774780
  38.5699892   1.5120250  88.3294773  38.6037993   3.0051112  88.5755253
  94.6537209  92.6288605  63.9010286  94.0619469  91.8765926  63.9122677
  95.2375793  92.4854469  64.6458578 108.1892681  74.6963453  62.4839783
 107.6091003  74.2691803  63.1141901 109.0676403  74.4107246  62.7352142
  58.2069159  39.4018626  39.3828130  58.6707067  40.1671076  39.0429211
  58.6188555  39.2285728  40.2292824  97.0927525 103.3392906  86.1735916
  97.7300072 104.0407372  86.0390186  96.6961670 103.2075310  85.3124332
   9.9046618  22.3709774  51.8147612  10.6697178  22.8294015  52.1622801
   9.8140103  21.5988421  52.3731709  10.8290827  97.3446369  72.5214148
  10.9228575  98.1009960  71.9423103   9.8861265  97.2711182  72.6685905
 101.7611408  90.7903194  89.6792030 101.1356735  90.8773327  88.9598656
 102.4449444  91.4300537  89.4807339 111.8160343  94.1195393  65.8284807
 110.9576035  94.3930626  66.1517620 111.8436432  94.4354630  64.9253416
  95.9075546  54.7529888   3.5868502  95.1722717  54.6991682   2.9763582
  95.5552006  54.4280815   4.4154096  24.8002481  23.7181592  87.5626087
  25.6008506  23.5777950  87.0570660  25.1063538  24.0293479  88.4144783
  51.0837412  24.3943071  78.8611698  50.8296824  23.8448143  79.6026134
  50.2575779  24.6092606  78.4281778  85.9936810  87.5954056  83.9867592
  85.2078819  87.2495556  84.4100189  86.2637234  86.9044495  83.3818626
  42.1106243  43.9406729  79.5856142  41.9586372  44.5920086  80.2703762
  41.2534571  43.8173914  79.1778231  71.9307280  15.6918347  90.1894283
  72.8211498  15.8124626  89.8595333  71.3845730  15.6735361  89.4035435
  15.4132152  72.3910761  84.1423607  16.3291490  72.5883007  84.3383217
  14.9775565  73.2433414  84.1509533  58.7405014   5.2022761  52.2301626
  57.8965712   4.7776106  52.0763016  58.6428690   5.6274670  53.0821705
  10.9265530  82.8773785  83.2932949  11.1531699  82.1084213  83.8163376
  11.1832535  83.6215687  83.8378334  14.6653986  14.9559474  76.8939161
  15.6156862  14.8961949  76.7958593  14.3577540  15.2856565  76.0495949
  62.9375458  53.9452600   4.8417318  62.2640371  53.3769798   4.4680044
  62.8822899  53.7936878   5.7852376  89.9199677  74.8806477  55.4311800
  90.7096100  74.4248772  55.7226849  89.2185116  74.2387056  55.5411577
  50.9155893  93.8771915  67.7126694  51.6990852  93.8040638  67.1676731
  51.0353422  93.2158470  68.3942223  67.7324963  35.2413249   4.4390810
  68.4761477  35.8391714   4.3629524  66.9748306  35.7678437   4.1842252
 100.6337166  63.2544470   9.9369550 100.0102234  63.1484318   9.2184466
 100.5938244  62.4249983  10.4130387 100.6714249  87.0724106  35.4735637
  99.7523594  86.9698906  35.7206345 100.7351398  87.9732990  35.1564312
  64.4524193  78.6915445  18.7672043  64.1535044  79.3584251  18.1490171
  64.0148354  77.8888178  18.4836984 102.2980785  85.2795696   0.5183891
 102.8885460  85.7006931  -0.1063049 101.4644814  85.2130699   0.0526334
  15.4586244   1.4500928  78.1411076  15.3947365   2.3945031  77.9988384
  15.0596261   1.0629657  77.3618984  23.7333226   6.7175585  70.3386688
  23.5825920   7.6540256  70.4672813  23.2249570   6.2957788  71.0314131
  82.3520184  23.0404282  14.1188061  82.8785515  22.4721479  13.5566175
  81.9012737  22.4394178  14.7119725  28.0694366  14.5665312  80.1657200
  28.7112308  14.0633619  79.6645689  28.5951328  15.1718295  80.6886768
  14.9529111  27.6133466  56.5417862  14.7051525  27.9501843  55.6807518
  15.6154227  28.2277322  56.8577623  30.5833697   0.8735113  68.9713430
  30.8029461   0.6984390  69.8864222  29.6264458   0.8874647  68.9530945
  30.0613546  45.1308966  85.6604004  30.7983470  45.0506449  85.0549030
  29.5369601  44.3453693  85.5048656  88.6926556  50.7362700   7.9649454
  87.8238392  50.6663942   7.5693244  88.6873627  51.5857840   8.4060031
  91.7228889  97.1321964  89.1523743  90.7924938  97.1368027  88.9274979
  91.9287395  98.0482006  89.3389320  91.6632938  43.4380007   3.4676424
  92.5749207  43.7139368   3.3726692  91.2504292  44.1428709   3.9665711
  71.8573380   3.6255521  53.5645294  71.8086767   4.5449874  53.3028030
  72.3602533   3.6346456  54.3789196  32.6727939  46.3649130   1.7611633
  31.9052982  45.9766483   2.1812049  32.6857018  45.9812498   0.8843114
  11.6631591  98.6489773  75.4047775  10.9646153  99.1153336  75.8638811
  11.3550782  98.5859203  74.5007086 106.2962055  88.1631851  68.1907225
 106.4167595  87.8189754  69.0757179 105.3658390  88.0324173  68.0075455
  12.3475575  97.2042561  68.9168882  12.8084660  98.0429935  68.9344931
  11.4479291  97.4302483  68.6806059  73.9066172  99.0309525  20.0705671
  74.5105219  99.7663879  19.9672508  74.4120026  98.3708763  20.5450273
  21.2558126  26.9608784  71.2947369  20.8863163  26.1452031  71.6329336
  21.1575246  27.5847125  72.0140457   8.2576704 102.7709198  77.3784924
   8.6435395 102.3304272  76.6213274   8.9713287 102.8238201  78.0141973
  65.5454588   6.6172707  81.6030598  64.7663212   6.3114840  81.1386490
  65.4722738   6.2292159  82.4750042  15.8579087  97.7972317  79.1995573
  16.3946068  97.0666218  79.5068026  15.8218229  97.6850414  78.2496405
  29.5508218  12.5668800  70.3042793  29.7281694  11.7367411  69.8619556
  28.6102724  12.5479376  70.4810286  69.3075991  25.9696794  80.2088356
  70.1149702  26.2541890  79.7805452  69.5133162  25.9870958  81.1435032
 101.2473488  99.9711609  90.3732777 101.6384983  99.4726467  89.6558380
 100.9559631  99.3055916  90.9964466  38.6921215  19.9969137  66.9686651
  38.1886411  19.8613167  67.7713823  38.2878256  20.7615423  66.5586424
  45.0470591  29.0682030  92.5744724  45.1871300  28.3140206  92.0019150
  45.2405500  29.8265266  92.0233440  75.9811831  81.5254688  10.4149497
  76.0275030  80.9750843   9.6331799  76.6990232  81.2169838  10.9679186
  25.8038735  12.8833055  68.1932831  25.5226684  13.3265901  68.9936924
  25.7342720  13.5520804  67.5120163  27.0331216  97.6233959  75.1044941
  26.2326646  97.4518394  74.6084452  27.5724649  96.8449116  74.9655962
  73.5655451  85.0642109  14.7939384  73.4459066  84.7286797  15.6823862
  74.0263557  84.3630886  14.3331647  46.2580538  30.7439709  82.7738380
  46.4871120  31.6641235  82.6431179  45.9912968  30.6916022  83.6916161
  64.3506432  45.4544592   7.2481978  63.7226343  46.1761999   7.2786492
  65.0010157  45.6745768   7.9151249  85.6411839  54.2770910  37.2128963
  84.7843933  53.8515520  37.2456193  86.0197449  53.9897490  36.3820219
  17.3981440   4.6594197  85.3415585  17.5018501   4.4020271  84.4254684
  17.4014699   3.8329360  85.8244038  43.9534092  10.8206165  81.5880108
  43.9455080  10.8384335  80.6310081  43.1177139  10.4197145  81.8270111
  13.4568226  12.1864533  80.5775547  13.7882900  12.9938161  80.9706497
  13.0022585  12.4745345  79.7859621  43.4799004  23.5419035  58.6337566
  43.9629984  23.2175612  59.3937922  43.2035494  24.4235182  58.8839912
  63.4228659   1.7202614  85.2544785  63.0050802   1.0156956  84.7592258
  63.3621025   2.4845259  84.6813869  60.2592230  18.7473559  66.6767550
  59.6854973  19.5112324  66.7364693  59.9585962  18.2824755  65.8958960
  42.9432869  16.4024031  88.9487267  42.8515530  15.7975936  88.2125092
  42.1803331  16.2267923  89.4994545  75.8918762  61.8869495  19.6037281
  75.6391096  62.3722506  20.3891087  75.7878160  62.5158834  18.8896954
   0.6667958  20.6378961  92.6936054   0.4840813  20.1016521  91.9220543
   1.5434802  20.3701496  92.9692268  79.7996426  56.1146498   9.0171254
  80.6461048  55.6854534   9.1417307  80.0192547  57.0266962   8.8269174
  87.2607994  81.0104370  33.4803319  86.8939400  80.5917072  32.7016687
  87.4158573  81.9167614  33.2143211 112.1833420  99.3790627  51.6350174
 112.8706360  99.6212864  51.0143805 111.6066933 100.1425266  51.6637993
  49.4076204   0.1121622  90.1339531  49.9241590  -0.0752903  89.3501949
  49.1716433   1.0360105  90.0499916  11.8228030   9.8470497  81.3322449
  12.5278854  10.4882801  81.4212036  11.9097292   9.2869300  82.1035767
  84.1527843  92.0460510  19.9269438  84.4696140  91.9398594  20.8239245
  84.9479008  92.0940781  19.3961823  32.6927400   8.2501787  82.9062653
  32.0322275   7.5860345  82.7091122  32.6309633   8.8720453  82.1812153
  76.9034576  36.3417625  78.0802870  76.7491341  36.7477679  78.9332676
  76.2281609  36.7131209  77.5125742  52.8958368   0.3497053  80.1747036
  53.2679796   0.8021174  79.4176912  53.2087326  -0.5512089  80.0929546
 105.8089733  13.8372564  83.5001755 105.1234913  13.3928216  83.0013561
 106.4514637  14.1013050  82.8415966   3.5064539  98.3133602  86.3077831
   2.9700336  97.6436234  86.7319679   3.0529878  98.4979248  85.4852676
  86.8453979  38.6394763  10.1007342  87.0814133  38.4167600  11.0012472
  87.6823139  38.8123488   9.6695471  26.7445016   7.0316321  12.9988480
  27.2677255   6.2704051  12.7478492  27.0683408   7.2688776  13.8677967
  78.3178425  58.5980844  18.2606196  79.1813612  58.3043337  17.9703176
  78.1619644  58.1170988  19.0733862  41.8038607   5.9105462  57.0591927
  42.3708725   5.1568180  57.2223616  40.9572744   5.5279452  56.8286848
   6.4317667  72.1665668  75.1498079   6.0740644  71.5017176  74.5613718
   6.9355041  71.6697598  75.7945251  39.8282075  10.9625804  69.2437077
  40.3366756  11.5499902  68.6845589  40.4777288  10.5562365  69.8174953
  23.2303715  10.2824509  57.1214867  23.2995677   9.6172667  56.4366674
  24.0271091  10.1751173  57.6410246  74.6665668  22.3896313  89.6511078
  74.8857784  23.3183527  89.5759201  74.4169712  22.1298909  88.7642765
   4.9161339 103.1487274  83.6399841   5.3347200 102.3332119  83.9155865
   5.3405046 103.8257790  84.1670036  34.9879789  15.9687507  85.3891850
  35.5524492  16.2453008  84.6673012  34.7288084  16.7849672  85.8168030
  63.3428669   4.9586609  59.5686817  62.3984814   4.8047069  59.5945549
  63.6787558   4.5186391  60.3495741  60.0526142  13.0098128  77.0942402
  60.0393391  13.4664774  76.2531042  59.1347313  12.9777050  77.3638535
  35.6960607  10.4582393  89.9022484  35.0968122  10.0815439  90.5466366
  35.5976200   9.9018031  89.1296387  68.9325857  30.6553316  63.2216215
  68.2312775  30.5730438  63.8678551  69.4157887  31.4365721  63.4907150
  16.0435963  97.2849941  67.7404308  15.6141818  96.4325905  67.8129148
  15.3865516  97.9108524  68.0450869 101.7534637  91.1218739  65.5837393
 101.6437721  91.8049717  64.9222374 102.6854515  90.9058666  65.5527115
  88.2567310  45.5693436   7.8817588  87.3154354  45.5052519   8.0432457
  88.3436203  45.4792833   6.9327742  77.6439857  34.3163323  47.0100737
  78.4683990  34.7476768  46.7853022  77.8037882  33.9275312  47.8700304
  48.8733292  37.3246765  37.9770136  49.1165495  36.6603923  37.3321867
  49.6873426  37.7962208  38.1538153  49.3442535  11.3524604  77.6227570
  49.1162825  12.1948647  78.0159664  49.5315218  10.7827532  78.3688116
  81.8415928  66.1760950  36.0274863  81.3509941  65.4040480  36.3094258
  82.7476692  65.9860992  36.2707233   6.1226916  73.8956451  80.5855560
   6.0426575  74.7746944  80.9558296   5.2192491  73.6074543  80.4552937
  15.7442462  30.6480575  55.2573109  15.2093279  29.8882389  55.0275898
  16.4141715  30.6845689  54.5745993  30.6520104  10.5479920  72.8275681
  30.2863717  10.2006543  72.0139980  30.3982449   9.9109316  73.4953928
  86.3563824  29.2462468  62.1502733  87.1397400  29.4765711  61.6507435
  85.6806850  29.8402929  61.8235064  92.8734303  61.8067837   3.0703086
  93.0477238  61.4541006   3.9429319  92.1322060  62.3994350   3.1951538
  53.0036497  29.6172833  68.9750004  53.6091471  30.3430200  68.8236427
  52.1352434  29.9995518  68.8486099  79.6351337  84.3574047  28.0293655
  79.6199465  83.4126949  28.1827593  78.9656353  84.7063828  28.6177683
  72.1612692   9.2034507  72.1619892  72.3631096   8.2688773  72.2074080
  72.7817202   9.6120965  72.7655411 103.9236259  55.9672642  13.6282659
 103.1463051  55.9927654  13.0702758 103.7173653  55.3138113  14.2966104
  15.7214868  98.8193226  63.4571791  16.4148164  98.2694912  63.0922031
  15.1157129  98.2010937  63.8659191  14.3886995   0.6030876  86.2739372
  14.3503487   0.0684004  87.0669556  14.3333685  -0.0281794  85.5565357
   5.2788258  59.8671532  32.7649236   5.8980721  59.9471426  33.4904337
   4.9264640  58.9809942  32.8473783  20.1106000  38.1899405  14.3315649
  20.0343728  38.7857342  15.0768507  20.3235912  38.7582803  13.5913932
  93.4763241 101.3947678  72.9208851  93.4061337 101.7983627  72.0557785
  94.3921661 101.1239529  72.9852390 110.3295040  89.0157413  49.0273333
 110.0346947  88.1469822  49.3004322 110.2690697  88.9998913  48.0721760
 112.9062843  40.1426697  61.0545826 112.3609734  40.8484554  60.7071161
 113.2961273  39.7376370  60.2798557  62.9563093  74.1180372  44.1970825
  62.9131746  74.7519922  44.9129534  62.4001980  74.4909716  43.5130596
 109.1763401  96.1548805  42.1854496 109.4654655  96.4690304  43.0421591
 108.5752106  95.4369259  42.3839808  96.3392067  44.9625063   8.7418246
  96.3100243  44.6513748   7.8370720  96.5941906  45.8823729   8.6706668
  38.5331345  34.7183704  72.3149872  39.1304016  34.9194050  71.5945101
  38.0346537  33.9608312  72.0085812  67.7416134  45.5167770  16.9875562
  66.9609261  46.0668278  16.9227076  68.4725952  46.1340904  16.9589078
  13.5780346  90.1889515  83.7924290  13.0207145  90.2285004  83.0152130
  14.2341828  89.5242214  83.5830784  81.9717216  94.1319275  78.9018726
  81.2380409  93.6181450  79.2394686  81.8259716  94.1650295  77.9564095
   4.3229112  67.9260683  72.4631453   4.9202967  67.2757196  72.0938158
   3.4514430  67.6223612  72.2091055  64.7985888  52.2874975   7.8552854
  64.0407085  52.8011370   7.5759649  65.1992512  52.8101015   8.5499698
  94.6531677 100.3410339  85.0969505  93.8684845  99.9088955  84.7596645
  94.4280720 101.2713146  85.1084614  92.8237057  86.1862278  71.2212753
  92.0474815  85.7646465  70.8525419  93.2220745  85.5135250  71.7735529
  59.8936987  39.5624971   9.5546198  60.3107643  39.1704655  10.3218222
  60.6061602  40.0078583   9.0960562  60.6634283  72.3110390  21.0998249
  59.7132969  72.3386908  21.2125874  60.7894373  72.1847630  20.1593947
  91.7758083  83.6835003  63.1661606  92.4049187  82.9881096  62.9741144
  92.3024940  84.4823265  63.1927872  29.7554898  59.4027710  67.8421068
  30.6585789  59.7000647  67.7313089  29.2707682  60.1929474  68.0806398
  97.7747345  70.0461483  87.2485065  97.0178795  69.6216249  87.6524544
  98.4902477  69.8992062  87.8671169  30.6390929   7.6269460  55.3765154
  31.2521386   7.6706213  56.1103392  31.0268688   6.9883335  54.7781515
  11.7500496  36.8274760  76.5152597  12.1599543  36.4490652  75.7374334
  12.2299004  37.6417422  76.6667414  12.2819912   7.2152692  87.9567814
  12.4217319   7.5151587  88.8549805  13.1638312   7.0924067  87.6053619
  32.7725554   1.0658991  84.4745064  32.2642016   0.4481510  83.9489651
  32.3976254   0.9984941  85.3526402  74.3849850  80.3331566  13.2986355
  73.7667465  79.6024561  13.2893872  75.2401829  79.9217606  13.4236324
   1.4631435  91.1002445  80.7859230   0.5670580  91.4275169  80.7074451
   1.9933091  91.7361641  80.3055382  92.7831841 100.8743858   5.5042249
  92.6884460  99.9914646   5.8615917  93.7146473 100.9503174   5.2972311
  61.9615364  64.3855286  91.5991974  61.2897587  64.3151093  92.2774220
  62.2246790  65.3056717  91.6173458  77.7602911  55.2179146  20.4217720
  77.2243834  54.4916439  20.1030803  77.6372385  55.2078629  21.3709784
  49.1921377  10.0336051  85.8908463  48.3228350  10.0614226  86.2905502
  49.0395403  10.2478266  84.9704838  60.2915049  24.0499473  57.5573826
  60.4248142  23.2244134  58.0231667  60.3742409  24.7224784  58.2334661
  70.8335209  43.6948776  81.8051434  71.2577534  44.3441677  81.2441826
  69.8978138  43.8753653  81.7151070  91.8943310  47.5738382   3.8178462
  91.1942673  47.6644993   4.4643128  92.2185516  48.4652328   3.6893064
  54.0135860  24.6539521  79.0548229  54.1724014  25.5685616  78.8213682
  53.0601597  24.5790505  79.0948009  17.4211621  12.2048914  84.5391846
  17.4032438  11.6396618  83.7668991  17.8562188  13.0037665  84.2412663
 100.7419395  77.7647877  92.6378632 100.3699207  76.9744253  92.2464943
 100.0095558  78.3798122  92.6777935  36.2016058  49.7241402  64.3388557
  36.1777616  48.8104534  64.6231842  35.6441116  50.1847553  64.9659634
  55.2035952  73.1810141   2.8939953  55.7908201  73.4343243   3.6061984
  54.3439674  73.5017061   3.1668115  79.4813776 102.5482750  22.5934935
  80.2858639 102.1873760  22.9660320  78.7987137 102.3087692  23.2202673
  27.8211808   7.7463305  52.3185396  28.5247707   8.3876616  52.2190952
  27.7840114   7.5755584  53.2596493  55.6543493  26.6445613  60.7673693
  56.2514973  26.3167381  60.0949287  54.8611975  26.1195922  60.6598949
  34.3772388   7.4284214  61.7940855  34.7529125   6.7487413  61.2344980
  33.4717989   7.1507925  61.9331312  60.3585339  78.0938721  21.4724779
  60.7189322  77.3675585  20.9637427  59.4107866  78.0155706  21.3635230
  35.5156875 105.8247185  55.9792614  35.9619999 104.9905205  55.8338451
  36.1696362 106.3740921  56.4114428  59.2675734  13.4967542  66.7707348
  59.8267412  12.7222192  66.7102289  59.7130680  14.1559458  66.2385368
  73.5874367  56.1680651  26.7725205  73.2080889  55.6307268  27.4679303
  74.3893194  55.7078600  26.5246749  70.1940536   8.9776856  80.6517887
  70.4317951   8.4610391  81.4217091  71.0299015   9.1789657  80.2309799
  52.7103710  40.6874037  39.1986609  53.4261656  41.2342644  38.8749146
  51.9163799  41.1636734  38.9558125  79.6563625  24.6334696  17.7466023
  79.6302605  23.8416743  18.2838285  79.7260046  24.3110466  16.8480337
  52.4184561   1.8126281  57.5184679  51.8290043   1.7411783  58.2692480
  52.0340729   1.2378002  56.8566132  94.4449806  94.4170284  67.6568890
  94.1795635  95.3085136  67.8828049  95.3548336  94.5028782  67.3722506
  47.9869413  68.5325241  16.2612593  47.9691315  68.8361549  17.1688521
  47.1478939  68.8153076  15.8975875  39.4370484  21.3502502  54.7636938
  39.2368841  20.4147887  54.7965384  40.2951288  21.4263725  55.1809883
  41.1047792  18.1926310  61.3258076  40.7002974  19.0437257  61.4939260
  40.4309034  17.6943398  60.8633947  43.0381155  33.9666557  72.8606987
  43.9213800  33.6019993  72.9163504  43.1739521  34.9082565  72.7550173
  99.6937847  92.5686073  84.9771023 100.2628613  91.8000317  84.9361420
  99.6821880  92.8089237  85.9035778  60.0135612  31.6661644  51.5436935
  59.1664219  31.3197994  51.8240833  59.8553658  32.0002103  50.6607342
  69.1421986  70.4099560  63.2533264  69.9452353  70.6913757  62.8149652
  69.1509533  70.8741713  64.0903807 111.2756252  53.1940365  14.1058612
 110.5345249  52.8073406  13.6395347 110.8828926  53.8622761  14.6675098
  22.5227952   6.3768530  64.4163942  22.1934247   5.8875358  65.1702595
  21.8269491   6.3068742  63.7628365  50.0515795  21.2430072  24.4733715
  50.0321054  20.9313154  23.5685515  50.7879257  21.8539882  24.5004272
  65.1471472  16.0866475  81.4958286  65.4113388  15.1710844  81.4054012
  64.8024607  16.1496031  82.3865986  74.3278313  50.9657288   8.8476944
  73.6934471  51.1177874   9.5481688  74.5956993  51.8425560   8.5726517
  70.7711744  56.7569780  22.1181583  70.8451080  57.2118473  22.9571199
  70.1973391  57.3148060  21.5930176  36.3712049  33.8006806  50.0340557
  36.3783789  33.1926560  50.7733059  36.7856073  33.3152962  49.3206835
  94.4171238 106.0194778  85.8012295  93.8101959 105.2988529  85.9702587
  93.8784790 106.6944218  85.3882504  20.3052497  35.8994937  81.8605995
  20.8259416  36.1905956  82.6091766  19.4180918  35.8062005  82.2076988
  86.1680031  94.6015644  37.3294377  86.6005707  94.1222191  38.0360794
  86.7985153  94.5873356  36.6093779  34.6966267  17.4650097  82.3637009
  34.3275213  16.5923333  82.2279453  35.5977201  17.3031318  82.6430893
  16.9580829  45.6076336  80.2762318  16.4555752  46.4199066  80.3388977
  16.9975901  45.4222107  79.3379974  18.3666170  90.2370167  67.1585846
  18.0119336  90.7070923  66.4039612  18.7956893  89.4686508  66.7820883
  35.3512883  33.6757922  91.0828018  35.0233531  32.9268646  90.5850029
  35.8360815  33.2860541  91.8103409  16.7699206  62.7675772   2.8737012
  16.4091027  63.0880213   3.7003550  16.8036187  63.5412884   2.3111492
  31.5908265   7.6005727  69.3485498  31.0205054   8.2602531  69.7432518
  32.4366641   7.7271032  69.7784090  12.3767805   2.5815222  82.1790981
  11.7630446   2.5775680  82.9136372  12.3408198   1.6901430  81.8321419
  26.2183905  20.8871484  80.1064587  25.8384109  20.2458978  80.7069969
  26.7496157  21.4537883  80.6658840  57.8395987  67.1868324  12.6417375
  58.2024622  66.5610838  13.2686365  57.4631882  66.6422796  11.9503546
  24.0255404  49.9697208  75.8797932  23.9534426  49.0476942  76.1265707
  24.4274521  49.9544621  75.0111961   8.2008356  19.1147459  68.2956743
   7.5924087  19.7619283  68.6523294   8.0225432  19.1111529  67.3552322
  71.3346958  65.0787830   5.2160531  72.1129990  65.0733948   4.6588799
  71.4500618  64.3260384   5.7959622  96.9725323  46.6496181  12.6359034
  96.2657738  46.4186907  12.0330846  97.7730942  46.5187407  12.1277595
  43.6430025  18.8148642  83.2915783  43.7184858  19.7580421  83.1468391
  43.4150934  18.7321377  84.2175674  64.1800213  10.5297923  86.4471626
  65.0811386  10.2113283  86.5000916  64.2526054  11.3844633  86.0223103
  92.9691887  40.2862597  84.8613453  92.3856068  39.6205521  84.4973469
  93.2545853  39.9222422  85.6993675  45.4243040  34.3890643  55.6988764
  46.2199545  34.9186730  55.6470013  44.7479677  34.9326754  55.2947855
  28.2747245  39.3428445  43.1541395  28.2002020  40.2395821  43.4805489
  29.1699314  39.2829919  42.8205872  31.8378019  37.0011473  73.0531693
  31.4362144  36.7749476  72.2142458  32.7001667  36.5866733  73.0253935
  12.9422009  18.0383384  71.9821596  12.0957124  18.4668100  71.8552637
  13.5640800  18.5920227  71.5100050 101.8441010  76.2687922   3.2695994
 100.9452152  75.9619379   3.3882684 101.7619705  77.0390463   2.7072904
 110.5034161  92.9116917  -0.3188235 109.7598267  92.4235249   0.0347435
 111.1865044  92.8221416   0.3457122  32.7834821  38.2061386  79.6533060
  33.3532166  38.7993264  79.1636515  31.8964481  38.4978008  79.4427443
  39.7696280  20.6960273  61.7558050  40.1926517  21.3917160  62.2590923
  39.3072414  20.1735544  62.4111319 109.3010521  31.3690042  89.6475697
 109.0760326  30.4797530  89.9211216 109.1600704  31.9029903  90.4293728
  37.9280472   7.2310042  57.5706530  37.2116399   7.7331841  57.9589939
  38.1577826   6.5853959  58.2389641  54.5576429  20.0191116  72.9489374
  53.6639023  19.7460520  73.1560373  54.4638109  20.5842066  72.1820641
  30.8754325  28.2950068  78.7836838  30.6225872  28.5815144  77.9060650
  30.6394863  29.0280509  79.3522024  44.5125008   2.5816843  82.4132252
  43.8600302   2.4316080  83.0973244  44.0043068   2.8795204  81.6587257
  46.7279339  25.8105850  76.2932777  46.4692783  26.7095256  76.0902119
  46.0686159  25.5067754  76.9171619 113.6418629  88.2685757  63.3524656
 114.2097282  87.8263378  62.7214384 113.2908154  87.5623035  63.8948441
  61.0777950   4.2334884  77.0585442  61.9349957   4.1468957  77.4756002
  60.4804707   3.7611312  77.6384735  22.8398395   2.1700694  45.3310537
  21.9267058   1.8929835  45.4061794  22.7999258   3.1263885  45.3214216
  10.0812936  20.0887823  88.3674049  10.5687606  19.2733252  88.4841824
  10.5288529  20.5344725  87.6481724  78.6123705  60.7033682   2.3439154
  78.9310551  59.8018694   2.2994442  79.2420864  61.1524677   2.9078287
  30.2740359 106.8467999  68.8689613  29.9245071 106.9565487  69.7532797
  31.2093210 107.0306492  68.9565706  44.5237541  50.3625250   5.9330010
  44.6524620  49.6762323   6.5877312  43.5742617  50.4746819   5.8870554
 113.3570766  86.5111351  79.0316343 113.8722324  87.0814037  79.6022701
 113.3460617  85.6672096  79.4831944  26.9675136   4.0003014  87.2040272
  27.8202271   3.8181722  86.8091297  27.0781708   3.7745833  88.1276226
  41.6741419  12.5101185  59.9099159  41.3129997  12.8630817  60.7230711
  42.0737123  11.6789281  60.1662254  16.3876343 101.2713051  90.8296871
  17.1444058 101.8023491  91.0777283  15.9640646 101.7696476  90.1307774
  62.4683809  72.9769993   4.6769083  62.8516579  72.1719408   5.0250614
  61.7028999  73.1361485   5.2291244  54.3826962   3.4676492  84.8932171
  54.2335272   4.4130212  84.8773289  54.6316147   3.2796258  85.7981586
  62.2632122  34.6637058  90.9014320  61.3302326  34.5176053  91.0577583
  62.4750996  34.0910530  90.1642704  47.1042538  22.1164322  60.1228619
  47.3410559  21.1990714  60.2592611  47.8588009  22.6091075  60.4456091
  88.3692551  97.1973896  85.2660084  87.5158978  96.8279171  85.0390911
  88.9569569  96.8822479  84.5793343  78.0562162  15.1495147  79.6820927
  78.5965395  15.7818556  80.1558304  77.8816223  15.5677748  78.8390017
  43.2810211   7.4009180  85.7398129  43.9171553   7.2622561  86.4414787
  43.0252743   8.3192462  85.8264160   2.5641844  14.3922961  65.9046268
   2.3316586  15.2979684  66.1093760   1.7239714  13.9536631  65.7709312
  52.1304274  75.8345222  22.7838492  52.3342228  76.3926744  22.0334053
  51.6695595  75.0850821  22.4067879  99.5723629  47.0425415  14.7083664
  99.6417046  47.6232767  13.9506280  99.8446274  46.1859035  14.3793058
  26.7223144  59.7613430  70.5039454  26.1045146  59.0506077  70.6754351
  27.5555849  59.3199253  70.3395033  54.0453529  43.9718771  82.9249573
  54.0583611  44.5556164  82.1664619  54.9054813  43.5519028  82.9187489
  58.1486559  25.1009822  53.7853050  58.9247656  24.7535610  53.3457804
  58.1240797  24.6430397  54.6254921  46.7522240  35.6579137  64.8115158
  47.2825718  34.9598098  64.4273138  45.8480310  35.3805184  64.6641350
   5.5575740   6.9912094  11.5684617   5.2572966   6.9334185  10.6614196
   6.4014214   7.4396616  11.5132892  68.7219906  31.6423750  72.4774504
  67.7750206  31.6160965  72.3403740  68.9240408  32.5728273  72.5757504
  49.1453409   9.9128670   2.7314416  49.9664974   9.9539441   2.2412965
  49.3125391   9.2756832   3.4259000   4.8474854  91.6532707  26.3883114
   4.0797487  92.2150135  26.4944053   4.4861108  90.7812881  26.2293029
  83.7651348  64.6920633  23.1732631  83.6986542  65.6345701  23.0199671
  83.5567760  64.2964649  22.3269081  57.6481581  27.4240923  52.1964359
  56.9209099  27.0261407  51.7179251  58.0864954  26.6872835  52.6221228
  87.3776722  67.2697544   4.6801281  87.7589703  68.0932713   4.3757230
  86.9607449  67.4921131   5.5125731  89.6990204  98.6028576   1.3255122
  88.9444733  99.1121960   1.6212460  90.2784157  99.2471790   0.9188553
  70.2677822  12.2778714  83.3716488  71.1681604  12.3912120  83.0671692
  69.7319508  12.4113953  82.5897980  60.2247715  33.2792234  67.9391289
  59.4441938  33.6354828  67.5148582  60.9351444  33.8549066  67.6559496
  64.9040604   3.6983037  92.2457027  64.0450048   3.4855884  91.8809986
  65.5184317   3.1717634  91.7342949  48.3664846   4.9785662  77.6113176
  47.5016069   4.6180683  77.8069067  48.4220648   4.9627960  76.6558647
  68.3942795  15.5645633  91.5801811  68.7341166  16.1515474  90.9047604
  68.2089901  14.7478580  91.1166191  85.9960747  72.7098322  12.2087574
  85.9721279  72.9543734  11.2836325  85.2934074  73.2212305  12.6099479
  98.6377048  74.5758009   9.4835961  99.0886307  74.3206406  10.2884495
  99.2244625  75.2095461   9.0709192  62.3608398  29.7204518  74.3026495
  61.9704533  29.5067763  75.1500988  62.8608131  30.5205584  74.4641781
  50.0761127  15.2818274  91.0748100  50.7847834  15.8718121  90.8180237
  50.3116322  14.9942565  91.9568920  84.8893070  89.7465706  15.6883812
  85.2843475  89.0772820  15.1296067  85.3970432  89.7119713  16.4990819
  43.9479494  29.2414737  80.4682827  44.4147205  29.8627067  79.9093390
  43.0273247  29.4903922  80.3863049  84.5577812   8.4539121  14.2227554
  84.5019722   8.9947355  13.4349573  83.7333012   7.9678941  14.2385340
   9.9308419  37.6445985  10.9932041  10.5252481  37.2031546  10.3865409
  10.1239288  37.2531843  11.8451095  61.7325687  32.5479293  81.8785095
  61.0315609  32.6019979  81.2289715  62.5145769  32.3339391  81.3696766
  29.4735336  26.5396094  81.5390968  28.5639787  26.8310213  81.6024971
  29.9291635  27.2671294  81.1155987  59.6745443  17.1041870  92.8443813
  60.2690220  17.4252546  93.5224247  60.0087357  17.4857116  92.0326042
  72.2404051  67.1602869  23.7028170  71.7306376  67.3512793  22.9154849
  72.1827221  66.2098646  23.8007975  30.3608561  50.1385403  63.3957338
  30.2183151  49.2612934  63.0402756  31.2431622  50.3730869  63.1080580
  31.8306470  59.3808508  81.1591816  31.8310666  60.1481819  80.5869675
  31.9784904  58.6418819  80.5690193  88.9284706  82.5873089   6.1879027
  89.3446922  81.7528534   5.9718841  88.0238342  82.4875832   5.8913982
  79.9611521 105.9177971  33.2987952  79.4061613 106.5881920  33.6972857
  80.1877689 105.3334045  34.0222311  76.0252190  60.7380533  26.5530014
  75.7954931  60.6774616  25.6257534  76.1975288  61.6685772  26.6967583
  50.4114962  38.8140154  62.3269510  49.6524811  38.3018923  62.0479202
  50.8139277  38.2885003  63.0184126   7.4981004  73.7431669   2.3747659
   6.9419247  74.5215797   2.3435017   7.2806191  73.3267498   3.2087496
  99.8678970  14.9688435  66.0144997  99.0666294  14.4466734  65.9752655
  99.5661259  15.8564603  66.2076235  38.3460307  34.4278169  76.2847519
  39.1211367  34.6241021  75.7585192  37.8003502  35.2105474  76.2086201
  37.6723433  15.8218026  38.3316779  37.8831649  16.0491204  37.4260759
  37.6522899  16.6614020  38.7909174  77.7993011  78.9719296  17.5562358
  77.0108557  78.9639425  17.0135403  78.1535387  79.8549271  17.4510491
  10.6223512  36.9599771  68.5695076  11.2591648  37.5361490  68.1467485
  10.6074190  36.1758828  68.0206871  27.1054935  43.0590010  66.4132214
  26.8174338  42.2617149  65.9687090  27.1497154  42.8151131  67.3377705
  66.6504860  19.2583179  64.8783207  66.0099411  19.5959091  65.5043936
  66.3719749  19.6150064  64.0348530  21.8137193  34.0676832  50.9499311
  21.7410564  33.3988810  50.2690077  22.7345872  34.3283105  50.9323645
  73.5342026  19.4816482  46.2643623  73.2457924  18.5950518  46.0475779
  74.2588377  19.3547666  46.8767643  87.9521561  99.3393898  14.6746600
  87.4736214  98.9260387  15.3932559  87.2713566  99.6153069  14.0609717
   2.6857480  39.9878097  73.7177658   2.3225141  40.4742241  74.4578266
   3.2901359  39.3615699  74.1162252  15.5925155   6.6684353  13.4352684
  15.6971514   5.7213128  13.3444846  15.2439129   6.7872965  14.3187737
  45.8747721  21.2152767  73.2252550  46.5221930  20.7969975  73.7928104
  45.4073048  21.8206906  73.8007402 113.5044479  67.0795012  24.6714520
 113.7769699  67.9239941  25.0303292 112.6937294  66.8721485  25.1361775
  69.0330648  31.1934042  76.5648270  69.3368053  31.8492842  75.9372950
  68.1701565  30.9342432  76.2416220  14.6611130   0.5598017  34.1934371
  13.9497054   0.6767971  34.8230743  15.1628113  -0.1809241  34.5338106
  94.0483856  84.7046566  33.3899474  94.0213585  85.0933266  34.2642689
  94.8999977  84.2697144  33.3474016  53.5365295  81.1941528  91.2569714
  53.3496189  80.2554417  91.2461281  54.0432882  81.3282299  92.0578766
  65.9141541  25.1874280  70.3928614  66.5380955  25.9122825  70.4317856
  66.0965157  24.7590780  69.5565033  64.9073839  28.1678247  76.3538837
  65.6230736  28.6982512  76.0036516  64.8029280  27.4581027  75.7201529
  93.3200359  60.9800577   5.7020146  94.2730904  60.9632540   5.7893664
  93.0094242  60.3410530   6.3434416   5.2459025  74.8447895  19.6405280
   5.6250894  75.0109529  18.7774885   5.0443769  75.7147694  19.9851298
  64.4000101   9.0811348  79.3893909  64.7751951   8.2039201  79.3121529
  64.5530844   9.3276370  80.3015518  32.4498701  19.4071734  88.4940529
  31.9717503  20.0120163  87.9267788  33.0918288  18.9940250  87.9166222
  91.5703678  87.4909306  18.1975055  91.2537861  88.1159973  17.5453508
  91.9805431  88.0340958  18.8705337  79.3456316  99.8101139  37.0039535
  79.2942905 100.7497501  37.1791053  80.2613926  99.5854568  37.1687007
  72.0450544  83.5994625  26.0320115  72.0385885  84.3765736  25.4731870
  71.9889688  83.9447021  26.9230175  92.5834751  62.9773998   0.4106635
  92.5094414  62.5050879   1.2399249  92.4463367  63.8953400   0.6447776
  68.5037184  38.5132527  70.1658630  68.9037895  39.3804431  70.2303123
  68.2305384  38.4428906  69.2511749  93.2329941  98.9482880   8.9524508
  93.8969994  99.3572044   9.5075393  92.4865055  98.8088131   9.5351398
  78.1938505  98.6048031   5.1268357  78.1352854  97.9666710   5.8378875
  78.2456875  98.0737877   4.3321240  33.7497640  21.6531610  90.4544640
  33.1610942  20.9207010  90.2722549  33.2426572  22.2321510  91.0235405
  49.2352009  29.2851114  69.6978474  48.4652615  29.7905469  69.4371700
  49.1808510  29.2410851  70.6524897  84.7610569 104.2859364   1.5268835
  84.4894600 103.3781147   1.6622238  85.3451252 104.4732952   2.2617269
  14.3631315 100.1294136  79.6958160  13.6748409  99.9474716  80.3356457
  14.9450684  99.3712139  79.7479153  98.9995384  74.2663383   2.7979955
  99.4058132  73.6197805   2.2208151  98.5765743  73.7456274   3.4807792
  64.1268110   6.8204713  70.3078127  64.0016794   6.4142865  71.1654758
  64.6167231   7.6220012  70.4915810  46.1550760  18.0064332  76.8512821
  46.6356659  17.2110164  77.0805740  46.2919617  18.5920370  77.5959682
  43.8198757  24.9414849  80.7113075  43.3027411  25.5070567  81.2848282
  43.2016134  24.6505785  80.0409698  47.5949335  39.8004866  78.4405661
  47.9949236  40.5985689  78.0951643  47.6808739  39.8812628  79.3904734
  19.6376967   9.3824691  75.2769852  18.9184117  10.0055611  75.1739502
  20.3680873   9.9108857  75.5987597  65.7001495  49.7546864  29.1092062
  65.9359932  50.6515741  29.3462753  66.5383434  49.2987394  29.0332246
  24.3664002   2.4767666  36.5033746  24.2682028   2.9794377  37.3120213
  23.5835218   2.6867929  35.9942365  13.8913703  72.9036188  91.3218403
  14.0105200  72.8403330  90.3741932  13.9568567  72.0005369  91.6323090
  93.9449787  72.2604132   7.2373331  93.1634521  72.0018721   6.7488658
  93.6936760  73.0712748   7.6795757  25.2796221  82.6585960  69.0616608
  25.0324321  81.7570305  69.2673445  24.5105886  83.0239487  68.6242437
  49.3961239  32.3595524  72.5361300  50.1614285  31.9240093  72.9114103
  48.9079094  32.6811433  73.2940578  58.3071151  34.6116404  92.3371453
  58.5563388  34.3302588  93.2174522  58.0668464  35.5325751  92.4391072
  51.1195946   8.8647819  63.9678049  51.4135027   8.2158518  63.3284760
  51.9265652   9.1919714  64.3652725  59.7093296  33.9116001  80.3529167
  59.6934080  34.2557716  79.4598770  58.7872744  33.7892175  80.5789089
  25.1589537  13.0226374  60.9223795  24.2924690  12.6549006  61.0961771
  25.0032830  13.9605927  60.8117485  35.8311510  52.9714680  84.9491882
  35.3080440  53.5288477  84.3730736  35.2011347  52.6179314  85.5771446
 100.9151649  89.9952507  11.6591036 100.0537014  90.2262878  12.0065665
 100.7281685  89.4120312  10.9234905  64.3841124  24.0055394  84.9030495
  64.1432810  23.3912206  84.2096138  63.7270164  24.6993279  84.8472404
  39.8936892  34.6444583  84.3610382  39.8117423  35.1332569  85.1799393
  40.6562567  34.0812850  84.4935417 104.6709347  88.7157726   4.4297901
 103.8873196  89.2499065   4.2998990 105.1794910  88.8376808   3.6280772
  93.4671593  28.7982035  66.0867500  92.7583313  29.2556262  66.5390301
  93.7550545  28.1291032  66.7077589  61.8763733  42.4274826  92.7713966
  61.6047001  41.6965294  92.2163010  61.1678648  42.5208569  93.4082127
  97.0082092   7.1088761  25.6008148  97.7596951   7.3924196  26.1214924
  97.3938465   6.7184150  24.8165560  97.7188206  91.4350700  28.5259795
  96.8603706  91.8499088  28.6108565  97.8286743  90.9432507  29.3397832
  45.5927849  15.2479601  85.7590866  45.6725883  15.7267153  84.9340630
  45.6065655  14.3257189  85.5031300  79.7372818  88.9641762   9.1886300
  80.2949715  89.0381145   9.9630648  79.1096449  88.2762909   9.4102442
  22.2839046  57.6010990  12.2497964  22.1982217  58.3494949  12.8403831
  23.1287646  57.2125101  12.4766064  56.0934830  41.3321733  57.0901775
  55.9362698  41.9155550  56.3477612  56.6371536  40.6303120  56.7323351
  69.8214197   3.4783414  85.7995605  70.4260159   3.9756107  86.3503933
  70.3362036   2.7323550  85.4917717 103.8863754  56.1398506  26.2091732
 103.4282875  56.2714911  25.3790808 103.1874752  56.0170412  26.8515778
  87.2413445  81.8854904  18.2222581  87.2501850  82.4656200  17.4609470
  86.9958973  82.4529648  18.9529812  27.6947689  30.5947733  55.6965971
  27.0529318  29.9301600  55.4464722  27.1685219  31.3275194  56.0165691
  21.4059305  26.9490433  82.7467155  22.1954298  27.2403383  83.2028675
  21.5962172  27.0969057  81.8203449  79.7422647 101.4611816   4.3820208
  78.8446522 101.1528111   4.2578000  80.2674866 100.6617069   4.4169787
  43.6636114   3.1356883  57.8749275  44.2518950   2.3948257  58.0208063
  44.0161610   3.5724050  57.0995474  61.0979748   8.1830949  68.5241795
  61.2369585   9.1278595  68.5900211  60.6110525   7.9568350  69.3166065
  31.3059211  23.5066819  91.1995888  31.0618472  23.0571866  90.3905106
  30.5142093  23.9772367  91.4603615   9.3519187  27.4491739  71.9931078
   9.9858975  27.0556927  72.5926685   8.9731926  26.7060351  71.5234852
  52.9066324  17.1413767  71.9867468  53.5658360  16.7420447  71.4191055
  52.1806192  16.5175724  71.9863462  64.3075180  25.7172704  91.3457870
  64.1460752  26.5806293  90.9652901  65.1214743  25.4235816  90.9365749
 106.8985844 106.7189312  13.6397195 107.4217606 106.2241364  13.0090880
 107.5257206 106.9918919  14.3093657  23.9927316   9.2034769  83.6134338
  24.0867352   9.4562256  82.6950073  23.7820649  10.0200760  84.0662193
  63.6269236  77.0769787  -0.0944255  63.3345079  76.8958378   0.7988354
  64.1261148  76.2997341  -0.3452828  48.1373310  64.7607803  17.0138645
  47.6471519  65.2076769  17.7039659  48.9660645  65.2369547  16.9619393
  14.7283661  86.0405254  48.3547020  15.3666782  86.7537308  48.3432770
  15.1675975  85.3187561  47.9048681  63.9617157  28.7376046  83.3057022
  63.4759045  29.0677643  82.5499153  64.3879986  27.9418588  82.9874229
  81.9092751  95.9657192  13.3853340  81.4311409  95.1401711  13.3072305
  81.2516785  96.6403198  13.2159090  51.0342979  10.1342785  70.3908920
  51.1196899  10.1599193  69.4378519  51.4193821   9.2951173  70.6433773
  46.6537666  37.5761533  68.2731915  46.0420990  37.7157092  68.9961147
  47.5111818  37.7921247  68.6398268  72.8093958  84.4382763   0.3465787
  72.0639038  84.1083431  -0.1550289  72.6235914  84.1803265   1.2494466
  92.1621227  70.8705282   5.8878255  92.3327160  70.0891924   6.4137924
  92.7255058  70.7704067   5.1204848  78.8455868  89.8450279  29.0067172
  79.0981722  90.0345516  28.1031060  78.1769180  89.1643333  28.9307499
  24.7874022  41.0482502  79.5737886  25.1873994  40.1965857  79.7495794
  24.6832228  41.4468479  80.4377937  64.3602180  68.4120035  15.0348532
  63.4475994  68.5915756  15.2609313  64.8276663  69.2130899  15.2714407
  75.2468300 102.3485374   7.6602280  74.7396660 102.5991535   8.4323740
  76.1231899 102.6959324   7.8261751  43.3444977  10.0481439  86.6826248
  44.2958450   9.9433982  86.6685581  43.1913280  10.9004653  86.2747955
  65.0873709  20.1341891  62.4456358  64.3745327  19.6645272  62.0126057
  65.8837271  19.7702062  62.0589066  54.0851498  48.9175558  85.5776215
  53.9687395  49.5801640  86.2585258  54.9057627  49.1578293  85.1473904
  31.7468405  10.3175497  54.2781353  31.3227701   9.4995916  54.5376396
  32.5949764  10.0466263  53.9267159  18.3758247  12.0592618  51.9841051
  18.0747545  12.2893631  52.8631067  17.7387750  11.4158893  51.6735077
  44.2941189  13.3984959  82.2310829  43.6554098  13.7956178  82.8231716
  44.0079689  12.4891233  82.1451187  28.2967973  64.9872208  61.0423756
  28.0688691  64.2921591  61.6597605  27.4767852  65.1835155  60.5892944
  41.7931414  30.3084350  91.2706375  40.9671879  30.0435567  90.8658314
  42.4503803  29.7416902  90.8668232  23.6226368  12.6474547  76.2771940
  22.6744199  12.5331700  76.2134886  23.9822125  12.0192385  75.6508732
  32.1662426  34.2223167  59.1014814  31.8313766  35.1093245  59.2330599
  33.0175924  34.3474483  58.6822224  34.4456959  30.3956747  28.5667300
  34.3087316  31.2016678  29.0645742  34.9564505  29.8364639  29.1520882
  30.4143095  22.7823997  88.8431644  30.6581545  22.0831442  88.2366943
  30.2333808  23.5352612  88.2804108  53.9741707  31.9753170  90.7893276
  54.4057989  31.4519858  91.4646435  53.0437279  31.9300580  91.0094547
 101.8056202  99.7807503  61.8696356 102.7552032  99.8753452  61.7950106
 101.6844845  99.0681458  62.4971437  78.2773447  98.4105492  80.0535107
  78.9439344  97.7284622  80.1350212  77.4748087  97.9363728  79.8359776
  41.5561724  54.3887854  92.4929619  41.6272306  53.7147188  93.1688499
  41.7972565  55.2009869  92.9384327  26.7314458  37.1949005  92.6831913
  26.1599779  37.9429674  92.8565502  27.1094060  37.3765707  91.8227386
  11.4765692  84.0707207  65.6268549  10.9032869  83.9283943  64.8736477
  11.3426948  83.3001804  66.1787319  93.8264370 101.2246799  39.4240880
  94.3155956 101.4626694  40.2116871  92.9718781 100.9415054  39.7493172
  75.6830263  69.3325615  82.6460648  74.9326420  69.0465260  83.1669617
  76.2794876  68.5839558  82.6540947  15.5090046 101.7304897  63.7212563
  15.6791389 100.8054352  63.8989162  14.5868957 101.7597389  63.4661293
  20.3014922  19.6315825  76.6710615  21.0740185  20.0989223  76.9889116
  20.4549003  18.7195635  76.9178820  75.4650402  80.3996181   7.6240075
  74.5169163  80.3542614   7.7474356  75.6035757  80.1069832   6.7232287
  77.6067114  58.9528418  81.6170979  77.5730610  58.0883741  81.2074661
  78.5213375  59.0583754  81.8789291  80.1004696  85.2016544   9.6890229
  80.6072044  84.8510170  10.4214931  79.5344639  85.8643723  10.0848424
  53.5990667  78.6777544  91.7483330  53.2647657  78.0060387  92.3427010
  54.5439148  78.6843395  91.9014835  72.3861933  74.7846460  13.9720476
  71.7673063  74.3203259  13.4084702  72.4850893  74.2179632  14.7371125
  96.3102341  91.4589119   5.4880804  96.5734959  92.3790455   5.5048138
  95.4509735  91.4479351   5.9097338  15.8873916  35.0917411  84.3205929
  15.7882762  34.2761302  84.8117065  14.9983704  35.3146839  84.0446091
  44.1228104  47.4152279  73.2293510  43.6199570  48.1758022  72.9379749
  44.8837519  47.7875948  73.6749315  46.4877939  41.5551805  51.4082336
  47.3096132  41.1558723  51.1229229  46.4936972  41.4608860  52.3607588
  69.8692513 101.6707039  14.4108868  70.1652336 101.9299793  13.5383010
  69.0810680 102.1925831  14.5613432  80.0380802  95.1007271  32.6884580
  80.7288361  95.5573654  33.1686378  79.2705679  95.1616573  33.2571745
  57.4454212   5.3221869  76.4844465  57.4964571   4.4880810  76.0176563
  56.5694523   5.3275126  76.8702984  95.8274364  17.1270096  60.8034563
  94.8859978  17.2266567  60.9449053  95.9063053  16.3431072  60.2598476
  27.4342680  18.6799252  63.1848431  27.5806808  17.9315603  62.6062679
  28.0515099  18.5503614  63.9048815 105.2174950  67.9462385  31.0127568
 105.3263664  68.8305616  30.6629705 104.4249535  67.9959536  31.5472078
  45.2882862  33.1666684  76.0771465  45.0664139  34.0167522  75.6971979
  45.6642675  33.3771348  76.9318819  65.0004625  38.6730194  74.1316557
  65.0859118  37.9015541  74.6918106  64.4033432  38.3986926  73.4356499
  34.5483947  65.6219912  18.3871353  33.8628292  65.9136009  18.9881289
  35.3666019  65.8246613  18.8406718  59.9052095  26.3462067  81.2516022
  59.2093706  25.7788277  80.9197617  60.4167795  25.7831192  81.8325233
  63.2942247  28.7823296  51.3368082  62.6224422  29.4148302  51.5915346
  63.7282085  28.5501742  52.1577787  68.8809204  29.9653912  67.4258471
  69.8290396  29.9504423  67.2951460  68.7595701  30.4460239  68.2446861
  67.5745916   2.4960124  70.4518318  67.4140692   3.0867717  69.7159910
  67.9895020   3.0471820  71.1153793   3.9547947  99.9601173  58.4245253
   4.8260474  99.6790218  58.7040615   3.4304422  99.9467278  59.2252207
  60.5442047   9.1120011  80.9861469  60.7821751   9.4397163  80.1188469
  59.6176052   8.8842374  80.9101772  67.0713282  35.7865715  90.9492302
  66.4865398  36.1979437  90.3128147  66.7168808  34.9050307  91.0653496
  40.5059576  27.4340701  68.6503458  39.5681453  27.4906445  68.8334894
  40.9233618  27.8381371  69.4110918 100.2585030  66.2027216   2.6632312
  99.4147491  66.5318203   2.9730591 100.1259995  66.0466528   1.7281818
  42.9730701   9.1680318  89.3843555  43.1253958   9.7536391  88.6426735
  43.8181591   8.7433797  89.5317459  20.5610132  30.4775143  86.5495968
  20.1994896  30.5829144  87.4296093  20.5259609  31.3553286  86.1695385
  69.1551447  34.4994974  84.8690605  69.3098402  35.2909875  85.3846645
  69.3402815  34.7612000  83.9671326   1.1529969  96.9390488  90.9633160
   1.5775652  96.8148518  91.8121624   0.8814992  96.0596275  90.7003593
  20.3650093   8.0314529  69.4294643  21.3127208   8.0888361  69.5510387
  20.0455904   8.9140654  69.6170759  33.0811596  67.3782015  54.6136570
  32.8987908  67.5177526  53.6844110  33.5126352  66.5244341  54.6474791
  57.7080631  21.0336494  57.7456856  57.7857494  20.1588726  57.3649454
  57.2193813  21.5360713  57.0937634  13.7398839  94.2507744  13.7229073
  13.9315534  93.7744045  12.9150891  12.9950833  93.7858486  14.1041553
  36.5118122   7.5861943  84.0115261  37.1785712   6.9357973  84.2320919
  35.6900907   7.0952797  84.0085411  43.7800217  48.9541435  76.0067463
  43.3296442  48.1408882  76.2347841  44.6542978  48.6754799  75.7343054
  56.3742828  47.3573256  38.7774897  55.4636240  47.3500490  39.0722394
  56.3755322  46.8130445  37.9900980  81.4982510  54.3926620   4.9492145
  80.6276226  54.2471409   5.3194445  81.3321400  54.6686745   4.0478504
  72.6575470  56.4268255   4.4786459  72.3602295  57.3339987   4.5484260
  72.0369720  56.0170746   3.8759717  99.4216824  98.0850697  36.9761896
  98.8820648  97.3523045  37.2729945  99.7394180  98.4907055  37.7828741
  29.2014933  11.9186985  86.5621185  28.8563108  12.0092452  87.4503136
  28.5157442  12.2802436  86.0006332  35.8559966  25.2207279  89.6179485
  35.2303886  25.7452011  90.1177216  36.1493492  24.5479774  90.2324200
  32.9273868   6.9467509  89.5378304  33.2808948   6.1164612  89.8570156
  31.9830894   6.7998922  89.4833755  61.1674309  25.3183413  63.6599064
  60.5404186  25.3637457  64.3817282  61.0979843  26.1699367  63.2284021
  36.6935921  36.4238858  75.7355928  36.8513131  37.3679972  75.7327175
  35.8119488  36.3294387  76.0961723  52.0238400  70.7034636  16.4543974
  51.1757278  71.1285067  16.5819466  51.8314886  69.7668552  16.4990926
  21.5635061  37.8495479  47.4697876  21.9129848  36.9919181  47.7117920
  22.1871877  38.4750676  47.8385401  83.6064720 105.8519363  72.3894548
  83.6587620 106.7423344  72.7368593  83.6678886 105.9611034  71.4404869
  92.2417736 105.2059460  76.6534281  91.3468170 105.3969288  76.9341707
  92.3488045 104.2686749  76.8156052  29.9341989  29.0997791  72.1849394
  30.0354290  28.3267736  72.7403164  29.5965219  29.7749639  72.7734375
  74.8938465  21.6312289  92.5933456  74.6300220  20.7373190  92.3752880
  74.8812962  22.0955658  91.7564106  78.4679317 106.5907574  27.0755267
  79.2775440 106.0815144  27.0377946  78.4636164 106.9689465  27.9548407
  75.2064466  51.0217190   1.4525214  74.5332670  50.3914118   1.7089799
  76.0259199  50.6365013   1.7628522  98.6195564  92.3797035   2.1235633
  98.6253262  93.1356430   1.5363984  98.8889408  91.6455841   1.5715380
  71.1615944  80.4546547  10.8532429  71.9117880  81.0466576  10.9077430
  70.9157944  80.4640293   9.9281871  97.1818256  60.5477428  10.7294011
  96.6388512  61.3325977  10.8029151  97.1031570  60.2871656   9.8117173
  78.6088228  44.5408869  85.3611469  79.3120575  44.4544506  84.7175407
  78.1472206  43.7030983  85.3254986  51.3132048  33.9204240  75.4436064
  50.3572750  33.8740230  75.4602385  51.5969944  33.2292032  76.0418606
  74.2063379  10.3402936  73.7725687  74.3724155   9.8797011  74.5950699
  73.8410187  11.1836863  74.0398884  77.2576237  27.6420045  76.6503668
  78.1354046  28.0110073  76.7482042  76.7753315  28.3005381  76.1504126
  78.9799452  89.0965366  26.2271166  78.8341665  88.1505203  26.2335348
  79.8976898  89.1957378  25.9738660 112.9068851  85.3963566  47.4326992
 112.5264072  85.0202370  46.6389704 112.7522564  86.3373375  47.3497629
  12.7241743  17.5535011  68.2489681  12.0647526  18.2115746  68.4688234
  13.2581127  17.4760020  69.0396214  75.9133387   7.9347306  89.4378948
  75.2535677   8.2947022  90.0306511  76.7476273   8.1105709  89.8729515
  18.4461319  10.5892968  47.7405977  19.2605472  10.6574595  48.2389069
  18.1551564  11.4947367  47.6322269  61.2237501  13.1968427  92.9735470
  60.5374908  13.6335337  93.4781075  60.9065866  13.2166398  92.0706463
  83.7162495  25.5260873  67.5951672  83.4044933  25.3503728  66.7073822
  83.9123154  26.4629817  67.5991154  59.5956516  46.3310242  70.4118681
  60.0955200  46.6128349  69.6457386  60.2128744  45.8049536  70.9203148
  51.5192461  38.0082417  73.1263924  51.9761515  38.7906694  72.8177214
  51.1841440  37.5966597  72.3298120  83.0979633  94.8416424   2.5350773
  83.1771660  95.4550743   3.2655978  82.9969501  95.3994465   1.7637935
  92.5961208  61.6026974  82.6958847  93.0261230  62.4193192  82.9497623
  91.6649914  61.7653465  82.8467751  78.8313055  35.3645968  74.8422289
  79.2488718  36.2187099  74.9534130  78.8106871  34.9915409  75.7235003
   1.1776990  22.5092030  90.4063034   0.5388394  22.1939516  89.7669983
   1.2167817  21.8175983  91.0669041  43.2176256  52.3150015  89.2733860
  43.0941010  51.9475985  90.1485920  42.7002764  51.7487574  88.7007141
  43.4489107  47.7322483  65.7156944  42.9062033  47.0848751  65.2655697
  43.5368156  48.4493113  65.0877428  52.6509809  49.2618084  88.2793999
  52.3532295  48.3870697  88.0295944  51.8580818  49.7095108  88.5745335
  55.3196716  46.3390589  71.1318636  54.9445486  46.4616537  72.0039225
  55.7302761  47.1792126  70.9274817 107.6012230 104.1539288  18.2801652
 107.6508236 103.2948589  18.6994171 108.4582710 104.5487309  18.4408987
  34.7233891  35.3553367  70.6029749  34.9627256  34.5777774  70.0986433
  34.9953127  35.1532269  71.4982080  56.8114519  15.2876902  85.0057602
  56.9787312  15.8184075  85.7845974  57.1450663  15.8153760  84.2801666
  45.9713984  10.9270668  72.0010138  46.1681128  10.4034066  72.7777481
  45.0348377  11.1129355  72.0683527   3.2853159  98.0941486   3.1075031
   2.8428635  98.3380318   2.2944917   4.1239730  98.5541058   3.0710593
   1.4498639  67.3820639  22.7258635   0.7149971  67.2675800  23.3284378
   1.7491670  66.4917994  22.5412607  96.4776707  55.5146265  16.1492085
  96.0297298  54.7238922  15.8486557  96.5589428  55.3986931  17.0958781
  22.2756505   7.8906804  19.3388212  22.6728201   8.7346512  19.1238749
  22.9852653   7.3864734  19.7368836  22.9609728  43.1240845  90.1176929
  22.6470232  43.9221811  89.6925926  23.4588480  42.6704216  89.4375896
  22.3411918  19.4763923  15.9845078  22.7014446  19.8351860  15.1735103
  21.4025593  19.6558106  15.9296262  49.4759941  30.1175976  56.9307661
  48.6975813  30.6485701  56.7623234  49.7257185  30.3367066  57.8284645
  30.2751136  63.6665535  92.1522999  29.9431252  63.7117338  93.0489540
  31.0475373  63.1042767  92.2109413   4.1215765  46.7864513  75.0790644
   4.4858640  46.1010885  74.5188808   3.8841200  46.3334322  75.8881521
  67.3137236  91.4189243  30.9600377  67.4409151  90.5439377  30.5933809
  66.8682861  91.2669277  31.7935300  48.7215567  44.6901464  57.1305180
  48.9226961  44.3202257  56.2709045  49.5764732  44.8955488  57.5088692
  46.0770464  54.2556047  85.4532814  45.9049797  53.8437319  86.3000298
  45.7430172  55.1475620  85.5485153  71.5416908  26.3481712  78.6909342
  72.4956608  26.2741375  78.6645889  71.2722540  26.2993860  77.7737379
  35.0006247  50.4739046  82.9156017  34.6280098  51.2479544  82.4934196
  35.2080178  50.7623482  83.8044357  23.7105441   0.4439914   7.4659914
  23.9594340   0.2982233   8.3786994  22.8915644   0.9368582   7.5168520
  56.2825155 106.2072277  68.1632423  56.6185045 105.7501316  68.9342213
  55.5058813 105.7088566  67.9088688  54.3320322  50.4615259  78.6778021
  53.8740063  50.8116913  77.9137135  55.1254177  50.9927177  78.7456942
  99.9131680  79.2467499   7.3226440  99.0182018  78.9625645   7.5083840
 100.1208496  78.8473368   6.4779121  47.7974844  59.5946217  86.7774868
  47.0066118  59.6438217  86.2405205  47.8370857  58.6816835  87.0624638
  68.0676365  38.0122948  85.2418613  68.5477924  38.3469892  84.4844532
  68.7064838  38.0236840  85.9545803  36.8890691  42.2682190  81.5631676
  37.0748687  43.1050062  81.9891930  37.4865961  42.2420502  80.8158302
  52.3611498  32.1956968  63.2550287  52.5225544  33.1324911  63.1427860
  52.9224730  31.9420457  63.9877033  67.9205847  27.2620583  69.0701199
  67.5737000  28.1463361  68.9519882  68.4035301  27.0844221  68.2630014
  97.3065948   0.4525508  33.2322931  96.4275646   0.3099632  32.8812790
  97.8917313   0.2504243  32.5022244  78.0721188  80.2782631  -0.0464975
  78.1421757  81.0406971   0.5279757  77.2227812  79.8931122   0.1691657
  86.0060120  22.3130178  71.0877514  86.1380863  22.7949691  71.9041538
  86.0659027  22.9798031  70.4036140  68.9332104  15.5996597  54.3471384
  68.8417912  15.6773925  53.3974886  68.4876156  14.7808409  54.5644283
  93.8211346  99.8168373  17.0093834  93.7246609  99.9790382  17.9477942
  94.7473145  99.6026611  16.8973184  48.4137964  53.8835096  77.4696779
  47.8664255  53.2056904  77.8661346  49.3051577  53.6572361  77.7352047
  27.0241976  27.4852014  80.2190685  27.3457646  27.7383232  79.3537617
  26.9290805  26.5339828  80.1704121  51.4229202  13.3811677  69.9573183
  52.0756674  13.3390105  69.2584801  50.5880690  13.2279909  69.5148373
  67.6546097  17.0227659  75.8158541  66.8878889  16.4876735  75.6107998
  67.5159454  17.8359592  75.3303432  53.6155510  51.3845825  81.4145470
  53.8094759  51.3245344  80.4791260  52.6612425  51.4449596  81.4579201
  38.2547355  52.0698833  84.4311810  37.3572087  52.4022961  84.4444656
  38.7427521  52.7181339  83.9234066 101.4958858  33.4949684  77.4547148
 101.7466164  34.0669799  78.1800890 102.1732616  33.6360168  76.7932844
  57.1019745  51.6251469  78.7540245  57.1044683  52.5815630  78.7927246
  57.8561354  51.4056063  78.2069683  34.8994994   3.5377869  12.7206302
  34.8109031   3.6325184  13.6690021  34.6671128   2.6253515  12.5483215
  17.6678348   7.0350033   7.3582923  17.0767725   7.2431779   8.0818528
  18.3808255   6.5429550   7.7654356  36.9677949  47.3033094  63.3015060
  36.0237503  47.4612904  63.3088064  37.2395515  47.5172901  62.4089861
  53.8323450  31.9948530  87.6870728  53.7969685  31.9240379  88.6409950
  53.2021999  31.3453507  87.3751450  66.5607214  62.2695780  86.0651207
  65.7298565  62.6652622  86.3284302  66.4678431  62.1214151  85.1240253
  28.4621501  29.8890829  60.9441900  27.6889706  30.0951290  60.4188633
  29.1024828  30.5574632  60.7003164  79.2857409  97.6737118  15.9465325
  79.3360567  96.7832661  16.2941062  78.5046482  98.0465984  16.3552928
  70.6293297   2.1770667  89.2602062  69.8967361   1.8830232  88.7188435
  70.2982950   2.9549432  89.7091579  84.0397167  47.7119637  88.7723351
  83.2167816  47.7510405  89.2596626  84.5429230  48.4610271  89.0915871
  50.4241228 105.1989269  76.7816639  50.2926636 105.1383114  75.8354712
  51.2201309 105.7213783  76.8798971  85.6926346 106.5444279  16.0077798
  85.1359177 105.9400654  16.4987373  85.1219082 106.8933201  15.3231096
  31.0585499  25.2285075  78.7476778  30.2491570  24.7644353  78.9615726
  30.7837296  26.1332440  78.5988331   0.7855549  95.9605980  16.6336274
   0.1043987  95.9684944  17.3060822   1.5397131  96.3761234  17.0517325
  16.8113017  21.2277985  52.1557188  16.3068593  20.7763362  51.4789963
  16.9773066  20.5571175  52.8181887  57.5779533  52.1208620  83.7523174
  57.6043940  52.9204559  84.2778492  58.0504084  52.3453856  82.9506874
  59.0424299  53.3810520  81.7610741  59.4648838  52.9382086  81.0251045
  59.3302345  54.2912006  81.6901302 107.2986221  12.7919555   3.0826241
 107.0494461  13.4662151   3.7146994 107.4008846  11.9979060   3.6072740
  58.7772655  28.4123802  82.6515007  59.3016720  27.6640534  82.3664761
  59.4196558  29.0948081  82.8460693  53.6125088  42.0945358  79.1264629
  53.5885048  41.4882708  79.8668003  52.8144932  42.6152515  79.2173386
  67.5604439 100.3881264  11.8724608  67.3161411 101.3106441  11.9467354
  66.8310499  99.9843121  11.4021909  47.5326490  39.0676355  75.8032608
  48.2879114  39.5799065  75.5144835  47.3778009  39.3555474  76.7029047
   0.1826822  93.6626434  -0.1865043   0.8215120  94.3603516  -0.0404358
   0.0223337  93.2986069   0.6841224  10.2205586  46.0760117  16.3948631
  10.5599356  46.7966795  16.9256103  10.9722030  45.4969597  16.2685418
  19.6380234  45.0338459  84.0457439  19.5440507  44.2864418  84.6363258
  18.7544239  45.1873302  83.7111950  48.3225298  41.2671614  53.4554338
  48.5426903  40.3572845  53.2557106  49.0655565  41.5865326  53.9674330
  35.3501129  33.5297084  82.6001453  34.8074484  34.2600965  82.8972721
  36.2319446  33.7484527  82.9014015  51.8379927  40.4602480  91.2203884
  51.4241219  40.4050064  90.3590584  51.8652010  41.3973951  91.4133835
  47.0313835  13.6966276  62.5114155  46.4312077  14.4422233  62.5218534
  46.5498209  13.0079198  62.0531464  47.0690823  27.4497461  79.7513914
  47.3954773  28.0106330  80.4550266  46.9890881  28.0337048  78.9971828
  70.9283876  37.3476386  85.4580307  71.4075470  38.1655693  85.3252697
  71.5684843  36.6616178  85.2686024  67.8230286   2.5296277  92.0814323
  68.0071259   3.2252812  91.4502335  68.3128786   2.7809083  92.8644657
 107.6512146  97.4687862   3.4302118 107.6852608  97.1463013   2.5296140
 107.0821571  98.2373142   3.3880746  58.4039783  35.1057601  78.1428671
  58.9461231  35.2923203  77.3763800  57.5739670  35.5470204  77.9622984
  58.1755829  15.5825794  42.4060488  58.6950970  16.3357782  42.1249294
  57.3374701  15.9573555  42.6768589 108.1601143  69.8219872  16.5993702
 107.2048569  69.8663568  16.5575266 108.3911896  69.0902758  16.0271502
 110.7545280  12.8128481  32.6592612 111.3858891  13.2768166  32.1093965
 110.7585526  13.2939470  33.4867620  56.2994862  34.5199728  71.9381046
  55.4070902  34.1739702  71.9261456  56.6910696  34.1453481  72.7271271
  55.4665565  41.7650127  68.4639168  54.6703959  42.2781277  68.6020279
  56.0880756  42.1100378  69.1049385  52.5045633  40.8169365  74.9804163
  53.1706190  40.5663729  74.3402433  52.9779243  40.8687210  75.8107662
  54.4952250  39.4205332  73.4528160  54.9457884  40.0341511  72.8725576
  54.6437788  38.5623407  73.0557346  81.4004421  25.5906248  74.2642021
  82.2357750  25.5591917  73.7978745  80.7438850  25.6815243  73.5736227
  77.4762726  66.7806673  78.4062386  77.4489117  66.0452986  79.0183735
  78.1726503  67.3454666  78.7413454  86.1936378  63.7469387  92.2999954
  85.4479027  64.2966890  92.0593929  85.8171272  62.8768015  92.4316597
  47.7011108  22.2955632  71.5610600  48.4764624  21.9865108  72.0296240
  46.9806957  22.1647549  72.1776056  80.2549267  32.9231024  87.1700764
  80.8794403  32.5656319  87.8012848  80.6540585  33.7417698  86.8756008
   0.5568537  27.8728414  31.5279150   0.2187956  28.7628531  31.4287734
   1.4709635  27.9315114  31.2500787 113.8636780  72.1612453  12.4097407
 113.6293125  72.5853777  11.5842652 113.0329418  72.0698404  12.8763747
  47.4235868  42.3170424  71.8564510  47.4981022  42.7601147  71.0112476
  48.3148098  42.3158836  72.2056627  57.5055885  78.0418491  16.9922876
  57.9227591  77.7373743  17.7982020  58.0102253  78.8146353  16.7385590
  91.2341976  79.7917128  27.9755259  92.1473694  79.5886564  27.7727604
  91.0512543  80.5910778  27.4817872  53.6715555  55.4724121  90.8283424
  54.5758581  55.7648039  90.9422588  53.4523153  55.7167101  89.9291801
  41.6321325  31.0184860  81.2325954  42.1103859  31.1753297  82.0467854
  41.4102745  31.8930078  80.9128666   3.5841313  56.1430693  25.2585673
   3.7843081  56.9737720  25.6899571   4.2768738  55.5495644  25.5485463
 107.5393772  75.4320288  11.7983353 106.8041420  74.8277950  11.6956103
 108.3048439  74.9265146  11.5249193 101.4969921  30.9700322  76.1480665
 101.1057758  31.6502523  76.6962290 102.2833824  31.3776779  75.7852173
  63.0519199  25.0687313  77.7812243  63.2623434  24.8012090  76.8865824
  63.1138182  26.0238123  77.7664471  57.7731705  21.8111920  76.1894035
  56.9786644  21.8470669  75.6567669  58.1844568  20.9805584  75.9503937
  52.5320387  40.4381466  71.4757872  52.7079582  39.7248292  70.8622265
  53.1959057  41.0973549  71.2734032 101.5253353  57.9398298  14.2799485
 101.0955238  58.6417389  13.7912571 101.2806988  57.1396923  13.8150108
 107.4727726 104.5324039   3.2961962 108.0735970 104.4754314   2.5532365
 107.7960396 103.8788223   3.9163238  87.3255157   5.5048859  21.7190838
  88.2280636   5.5212390  22.0374608  86.8173504   5.1677561  22.4568796
  33.9089656  18.7778401  45.2097559  33.3180070  19.1392195  45.8703613
  34.7794008  18.8514340  45.6011105  60.7669640  32.7213430  72.7955627
  60.3872776  33.0743551  71.9909191  60.6743622  31.7726660  72.7079821
   1.4197715  75.5885029  73.9807940   1.9546974  74.9591255  73.4970856
   0.9582458  76.0817337  73.3025980 106.4623165  55.3636360  65.0652361
 107.4099731  55.4780817  65.1366043 106.2784290  54.5698357  65.5675268
  80.9633446  24.3065810  90.7634258  81.3126564  24.7295165  89.9789810
  81.0485458  24.9679017  91.4501762  43.5104513  19.6663487  77.8341675
  42.7054214  19.3944812  78.2749033  43.8125658  18.8795149  77.3804569
  85.5984116  98.8225174   8.6172724  85.5810070  98.1056118   7.9832566
  84.8891258  98.6200237   9.2273080  62.7595997  38.7073517  79.7147751
  62.2629118  39.1147923  79.0051746  62.3289680  37.8640842  79.8550892
  56.4250374  49.7182703  84.7349834  56.5708637  49.7586012  85.6801510
  56.8809557  50.4856682  84.3893433  65.4900455  12.0448983  64.7825527
  64.5883417  12.3579001  64.7105122  65.9833860  12.8047669  65.0915003
  46.6533899   1.0891278  76.4000225  47.3733187   0.9625233  75.7820368
  46.4195490   0.2041298  76.6798925  84.1699791  30.2896523  78.2380199
  84.6668911  30.6280804  78.9828587  83.7916946  31.0679793  77.8289461
  72.0623398  33.5327291  87.4348927  71.4421368  34.2461801  87.5851154
  71.8335724  33.1948280  86.5690327  85.6551075  79.6411514  17.6177895
  84.8748112  79.5760870  18.1683719  86.1474991  80.3748131  17.9859245
  61.0856771  47.0255852  82.7922249  60.8882141  46.9829416  83.7278652
  62.0125389  47.2615147  82.7535534  31.1106801  54.7340584  62.1636343
  30.4709530  54.1566515  62.5802660  30.6871963  55.0150204  61.3524914
  81.9146252  16.5166104  80.5362701  82.1832657  17.4274600  80.6563568
  82.0661354  16.1078775  81.3884544  83.8842869  73.0769396  79.4549465
  83.1247902  73.1240082  80.0356197  84.6195793  73.3590555  79.9989939
  78.2392883  57.3752499  83.9190292  77.7034235  57.9423809  83.3645535
  77.6297379  57.0356941  84.5742989  40.1643705  39.5133853  69.8344564
  41.0753441  39.3408656  69.5965576  39.9253917  40.2861547  69.3226433
  75.4523516  71.2294865  51.1900282  75.8719969  71.8409634  51.7951918
  75.2433443  71.7593384  50.4207420  65.3596783  28.5689330  87.9911232
  66.1611891  28.4226251  88.4935284  64.7957802  29.0700102  88.5803318
  88.0839920  45.4904509  61.6640377  87.2321033  45.0605869  61.5883780
  88.2561588  45.8367014  60.7884264  47.2957945  55.2359104  89.8898506
  46.3586903  55.1064730  90.0358200  47.6928616  55.1031876  90.7506371
  99.1108990  37.5356483  76.5004730  98.4824562  37.2806835  77.1759605
  99.8931217  37.7957439  76.9869947  60.7621145  90.4028893  56.7596292
  60.0854874  91.0499954  56.5604734  60.6187248  89.7027111  56.1229038
  28.5990286  11.3133371  14.2331278  28.1064653  12.0899272  13.9675689
  27.9300404  10.6923950  14.5214283   1.6812827  66.7262983   3.8186324
   0.7538665  66.6103935   3.6119989   1.7245799  66.6575384   4.7723773
  55.9893847   5.1263279   6.8906862  55.8907747   4.6382698   6.0731852
  55.1486063   5.0204182   7.3357749 109.5953560 104.5322132   1.7198834
 110.4162979 104.1345406   2.0099507 109.8296356 105.0135899   0.9263949
  66.0509968  74.4954681  84.6985245  65.8866310  74.2248631  83.7952042
  65.8715391  75.4356861  84.7033119 104.1148758  64.1851425  81.3720322
 103.2309914  63.8195848  81.3352013 104.5875740  63.6088371  81.9725895
  64.2148829   5.5042148   5.8604920  64.4379044   6.1383361   5.1790363
  63.3999538   5.8351320   6.2381458  81.6107750  86.2636566  78.2895660
  81.5696239  86.9085789  78.9956903  81.1893749  85.4843903  78.6520481
  90.5378819  57.0770359  80.5033112  91.1679173  57.2751474  79.8104620
  90.6507874  57.7837515  81.1389446   6.8483347  91.3951683   1.6210987
   6.3762558  91.1457539   2.4155559   7.5493222  90.7477283   1.5457961
  22.5943375  22.0771623  25.2731252  23.0493355  21.2429953  25.1574898
  21.9419336  21.9021297  25.9513330  96.7241287  53.3361053  89.9558640
  96.4790535  53.4065247  90.8784771  97.6794147  53.2763338  89.9656868
 104.0030289 100.9306717   4.6250790 104.5180130 101.7375278   4.6292421
 103.1371880 101.1975670   4.9338144  35.6215358  60.2279139   1.4822902
  36.0367250  60.4747295   0.6558928  36.0168576  59.3855524   1.7067431
  62.9363394  50.8053350  91.8867779  63.5394049  50.0624418  91.8612576
  63.3893442  51.4981890  91.4061832  57.5920343  43.3826208  90.5732632
  57.4618387  43.4953737  91.5148354  56.7748308  42.9921293  90.2635384
  62.6954460  63.1595659  84.7584820  63.2002401  63.7620020  84.2121506
  61.8505001  63.5936928  84.8761177  50.6305790   1.1647199   6.3208008
  51.3551712   1.2075538   5.6968093  49.9978542   1.8060961   5.9975016
  28.4059119  96.4888668   2.7959797  27.8487968  96.8616581   3.4792644
  27.8343749  95.8820152   2.3255396  79.4033623  59.0162230  75.4038668
  79.0598297  59.0948677  76.2938309  79.2134380  59.8621464  74.9981928
  32.9905486  16.9966149  24.1994643  32.3822713  17.5768435  24.6572471
  33.8005304  17.5024307  24.1338038  40.8640051  12.8920913   2.3787932
  41.2578535  13.4127438   1.6787687  41.4245892  13.0492473   3.1385824
  78.5785484  53.9024162  81.9584465  79.0551615  53.9878607  81.1327457
  77.6811266  53.6965179  81.6967773  84.0791607  65.3547955  91.5986538
  83.4589005  65.7722759  92.1963310  83.5739994  65.1969337  90.8010864
  62.5862694  10.8906114  18.2141244  62.4933290  11.7265201  18.6711276
  63.2347822  10.4081380  18.7268448  81.0890579  60.3859377  70.9096670
  80.5811119  60.9711838  71.4715385  80.8477879  60.6399918  70.0188923
 100.7156372  59.4458628  85.1925564 100.9416485  59.5747614  84.2713928
  99.7595978  59.3992949  85.2003479  17.5276816   2.4534136  10.8714390
  17.0528150   1.9081439  11.4986658  18.4277439   2.4645235  11.1970091
  45.4760933   5.7641143   0.2211852  45.5710697   6.6808468   0.4796670
  46.1505318   5.6320173  -0.4450837 100.2968025  66.8302870  71.4335680
 101.0742092  67.3427868  71.6554070 100.6064701  65.9249687  71.4064217
  87.1814346  86.1336422   5.4786623  87.6045895  85.7754326   6.2589562
  87.8831863  86.5887928   5.0132406  88.2089138  42.5323105  86.9828796
  88.5673141  42.2288799  86.1487865  88.4994984  41.8797255  87.6200008
  10.1308012  11.7330825  18.5731590   9.9787343  12.0506430  17.6830673
   9.5334643  10.9911883  18.6680925  40.9997463  26.6420698  12.2775614
  40.7207823  26.1133862  13.0251586  40.3936195  27.3828554  12.2685874
   5.7547915  96.9790554  23.6622238   6.6793597  97.1870899  23.5275936
   5.6581151  96.0884571  23.3249903  79.2583179  84.3746185  79.3938780
  78.9974976  85.2901745  79.2940760  78.8435078  84.0950012  80.2099514
  31.2526035  13.5333014  13.7599599  30.8797789  14.2949748  13.3160150
  30.9784222  12.7872407  13.2266212  94.1177177 104.0752220  31.6072702
  93.7816811 103.6514759  30.8174896  94.6819401 104.7763729  31.2812948
  59.4632435  93.0005646  77.3781824  60.0140619  92.9340458  76.5981770
  58.6428595  92.5749588  77.1290588  65.4556751  60.2076530  88.0604267
  65.0059223  59.5686865  87.5075436  66.0796165  60.6349993  87.4736404
  81.6446495  67.9595280  88.7709332  80.8094883  67.7576256  88.3490753
  82.1757317  67.1741962  88.6388588  90.9615421  30.8175445  83.5688019
  90.4544735  30.0165200  83.7010193  91.4147377  30.9541965  84.4007683
  62.6846600  37.0099211  89.5641136  63.5388803  36.7390990  89.2276669
  62.4144173  36.2923193  90.1370335   5.4315466  29.0198779  12.0054042
   6.2619317  28.5452843  11.9672787   4.8015177  28.3747959  12.3265958
  68.0024290  75.7174301  64.6981430  68.0839109  75.5799341  63.7543821
  67.5707769  74.9256802  65.0191450  36.9223905  91.5060902  64.3843699
  36.0858083  91.8921757  64.6437979  37.3356462  91.2530518  65.2098560
  50.8152866  57.6324511  92.3757076  51.1398125  57.1546173  93.1389809
  50.6145954  58.5072756  92.7083302  43.7813377  10.3782260   9.8939884
  43.0299091   9.7959435  10.0059271  43.5303164  11.1830401  10.3473032
  28.9646840  25.8990550   4.4841653  28.9049864  26.8170953   4.7484922
  28.0547285  25.6165576   4.3924725  81.8824100  75.8173847  83.6568356
  81.4356232  76.5637159  83.2573318  81.1913681  75.1690769  83.7924099
  97.2979069  67.1848822  85.1213169  97.1811771  67.8532362  84.4461060
  97.3016071  66.3570452  84.6407986  58.9968204   6.5088314   3.0168661
  58.5684776   5.9293252   2.3868464  59.0963554   5.9743720   3.8046977
  34.7970843  36.2331200  29.8389673  33.9237928  36.6247439  29.8539472
  35.0296068  36.1309171  30.7618546  33.5844493  10.6881297   5.6802201
  32.7238321  11.0526335   5.8868814  33.7181807  10.8988416   4.7561270
   7.4063575 103.6723137  11.4620674   7.2551596 103.4855270  10.5355239
   8.1152707 103.0801868  11.7131877  69.5118570  79.8583364  74.7697115
  69.0449667  79.0682840  75.0418568  69.7736359  79.6825075  73.8659477
  72.0241928  48.5735607  85.5515862  72.4768305  49.0196991  84.8358250
  72.5230837  47.7676296  85.6850433  87.5033855  25.7696676  74.7185993
  87.7244473  25.4959178  75.6087828  88.3495426  25.8808923  74.2851400
  41.2493229  83.9185143  71.5931273  41.5886021  84.7881889  71.3814974
  41.8992329  83.5464287  72.1892881  38.6232615  11.9767272   3.5489962
  39.4264746  12.3212838   3.1586650  38.5599852  11.0815668   3.2159558
  58.6299419  40.7928610  90.6127167  57.9902267  41.4964533  90.7220364
  58.1901026  40.1543331  90.0514126  46.6380596  17.1693647  15.1890242
  45.9104633  16.5593898  15.3105402  47.4005175  16.6078508  15.0490439
  27.8030157  13.8800514  20.6589460  28.6519337  13.4513569  20.5503631
  28.0179691  14.7964454  20.8328676  68.3336544  23.0432558  87.3879623
  69.1885090  22.7351499  87.0870972  67.9084730  23.3784628  86.5985966
  25.6927586  20.9836888  22.6966357  26.4842463  20.4745531  22.5218320
  25.1085186  20.3719449  23.1445885  94.0363312  57.9702568  88.7818241
  94.3560028  57.2111082  89.2694092  93.7905121  57.6190567  87.9259777
  57.3683882   0.9846777  19.1483128  58.2422590   1.0617589  19.5312464
  57.0822811   1.8891281  19.0204692  87.0053673  63.4666824  73.3351421
  87.6808453  63.0291319  72.8169584  86.9551373  62.9560947  74.1432333
  84.2628479  45.1651430  63.5867786  83.3077240  45.1843786  63.6468792
  84.5290565  46.0761261  63.7111807  44.0225315  25.7254982  13.7597513
  44.7212696  26.2313652  13.3449030  43.2757998  25.8186054  13.1681848
  56.3184071   6.9426745  27.0559263  56.8571520   6.2102008  26.7568183
  55.5494690   6.5296543  27.4488473  74.9103880  20.1003385  37.6015258
  74.3148899  20.8497286  37.6068401  75.7792187  20.4839754  37.7206492
  94.7467041   5.3279442   0.6787978  95.4792881   5.9425801   0.6366702
  94.1059971   5.6760937   0.0586984  85.6963348  30.8871794  80.3761673
  86.5285683  31.3081956  80.5914783  85.5255604  30.3025746  81.1146164
  51.4155149  16.5843141   7.9902065  52.0945978  16.1872327   7.4448591
  50.5951309  16.2305045   7.6466560  83.4202290  63.9682579  61.6266870
  83.4044075  64.2739344  62.5336266  83.0486679  64.6926498  61.1232710
  20.3097892  11.8064022  34.4848228  20.2456284  10.8619440  34.6266484
  20.9945726  12.0933437  35.0889492  61.8612385  55.6485176  87.3477173
  62.5975275  55.7327461  87.9535389  61.7003202  56.5407848  87.0408058
  79.9652290  52.8122234  86.5874004  80.7991314  52.8017950  87.0572090
  80.1874352  52.5341797  85.6988335  74.7146893  47.9737949  87.4953461
  74.3119717  48.8400412  87.5559616  74.2557573  47.5463820  86.7722034
  59.7199821  41.5507650  77.1639919  59.4297695  42.3709965  76.7649651
  59.5277929  41.6565228  78.0957174  66.8723488  67.4103451  91.8859291
  66.1234379  67.5731468  92.4593925  67.3994827  68.2068729  91.9484329
  57.5926304  39.0540695  80.3917503  57.5151300  38.1536603  80.7071781
  58.0900717  38.9805508  79.5772743  97.9476929  49.6999836  92.5657082
  97.2711754  50.0016260  91.9594288  98.7574863  49.7323990  92.0563698
  36.0625744   4.2301151  19.0547836  35.6988358   3.5916987  19.6682572
  37.0102048   4.1604361  19.1704273  76.1124611  52.0006609  85.2312088
  75.9906769  52.1583462  84.2949772  76.8093538  51.3459539  85.2751637
   8.2077098  63.9015102  78.3589554   8.2052249  64.7831821  78.7316227
   8.1051785  64.0392208  77.4172783  88.3115196  89.4322014  87.1435070
  88.3375645  88.9954281  87.9948521  88.9163017  88.9295197  86.5978146
  24.8413390  44.5550364   0.1917657  24.7536391  43.9327639   0.9137925
  23.9413947  44.7340410  -0.0807944   9.8545313 105.1005840   9.3268728
  10.4480362 105.7989788   9.0507770  10.0356317 104.9872780  10.2599299
  33.5690951  31.1455703   5.0539410  34.2295623  31.7122769   4.6553674
  33.0583286  31.7301536   5.6139505  76.7268419  97.7519798   9.4998676
  76.2203550  96.9426250   9.5680636  76.2521172  98.2781029   8.8563955
  73.8787699  96.0884571  66.4794064  73.4129047  96.5393925  67.1835756
  73.9965725  95.1955509  66.8035650  32.1023273  34.7477460  29.8385715
  32.1000075  33.8829875  30.2489638  31.2055469  34.8668265  29.5257854
  55.3582287  84.0305519  79.8766088  54.9640369  84.8196697  79.5049286
  55.9481335  84.3551540  80.5569649  75.0483561  31.8399382   0.9439518
  75.8368254  31.4323735   0.5855642  74.8360205  31.3137746   1.7148587
  78.4975576  59.7147989  78.1037426  79.3379641  59.2939663  78.2849741
  77.8611803  59.0002775  78.1305456  88.4498215  75.8883572  63.8865519
  89.1889381  75.8557224  63.2791996  87.7811432  75.3372335  63.4799004
  92.2683907  82.9071426  47.1044731  91.6030884  82.3629475  47.5257301
  91.9711876  82.9903793  46.1983967  83.4785652  91.3417530  75.8632517
  83.5726547  91.2059116  74.9204254  84.2622662  90.9435272  76.2420034
  61.5112257  36.2719274  16.9045019  60.8601427  35.6006575  17.1087575
  61.7790127  36.6133428  17.7577066 108.3375168  69.9387741  77.5443602
 109.2107582  70.2933455  77.7115917 107.7479649  70.5143309  78.0315924
  88.0714321  59.5873404  51.6995716  87.3279285  59.8364544  52.2485495
  87.9254246  60.0498438  50.8743429  43.1491995  12.2449660  11.6839969
  42.4732876  11.7320418  12.1270323  43.5383320  12.7779984  12.3773122
  93.3013439  77.4753571  77.5023842  93.4858322  78.3317184  77.1165800
  94.1636848  77.1150589  77.7092361  37.7970481  98.7261581   5.0620675
  38.1588483  98.1208134   4.4148502  38.5419273  99.2649078   5.3287959
 101.6508961  64.7037411  63.0605841 101.3588715  64.1002560  63.7437820
 100.8415985  65.0269461  62.6645851  80.3007030  96.7153072  71.2717915
  80.4864693  95.7765579  71.2502766  80.7324886  97.0267391  72.0672846
  91.4115047  58.2097626  77.4206495  91.8155384  57.4051619  77.7456236
  91.3618851  58.0868959  76.4726686  33.0033708   2.5424290   4.7650954
  33.2157063   1.7101961   5.1876271  33.2851076   3.2082742   5.3923959
  62.7229548  87.8090000  73.3583832  61.8036318  87.8567982  73.0960894
  62.7764130  87.0228291  73.9018154   4.2662266 103.1984234  15.7864249
   3.4222096 103.4257698  15.3963208   4.9084157 103.4133053  15.1099277
  95.5844021  52.6954222  74.6432304  96.3640022  52.6855040  75.1985168
  95.6564426  53.5087872  74.1437483  61.1929655  58.9286423  89.6378517
  61.7585754  59.5552301  89.1865158  60.3727484  58.9479971  89.1448021
  47.9168987  28.1960011  30.8115911  47.0727634  27.7449250  30.7975912
  47.7506733  29.0000582  31.3036227  57.3623371  63.0539370  85.3133202
  58.2810211  62.8474474  85.1412392  57.2663355  62.9482746  86.2598133
  64.8192596  33.9678335  20.9670806  65.1961088  34.2718053  21.7928028
  65.2713966  34.4781446  20.2952242  73.1501770  76.3132477  62.1009159
  73.5574484  75.6916046  61.4976549  73.8765860  76.8494034  62.4188709
  68.3811760  83.2891655  82.0620823  67.8119373  83.9654827  81.6949272
  69.1571426  83.2990837  81.5017223  93.6018085  84.0250778  74.4353533
  93.6760712  84.9482155  74.1934013  92.8351021  83.9882946  75.0072289
  58.0504751   8.1962037  84.9039173  58.4085512   9.0787834  84.8087025
  58.8198853   7.6340997  84.9949169  58.3028936  82.0106125  63.5629463
  57.7268076  82.4834061  64.1636372  58.9829969  81.6398907  64.1253185
  77.9727554  64.3038940  82.0374012  78.9085722  64.5005226  81.9947910
  77.8132248  64.0967321  82.9582024  59.5683622  93.8648987  83.0873013
  59.9482918  94.4095993  83.7766361  59.6407890  92.9707909  83.4213066
  23.8184810  69.6583223  91.1781597  24.0675187  68.8894606  91.6910458
  24.6268678  70.1645184  91.0974693  92.6421642 105.9686947  14.7280657
  92.5028324 106.8867779  14.9603522  92.0674229 105.4822350  15.3190410
  37.4775815   4.4217199   4.6253869  38.1068754   4.3270198   3.9103666
  38.0174613   4.4766945   5.4138917 113.1076527  11.4369047  76.6172457
 112.8183937  11.7600453  77.4705601 114.0629387  11.4847147  76.6542959
  43.3009672   5.4151791   9.3946505  42.9939032   4.6394718   8.9253718
  44.1683912   5.5885965   9.0289533  60.7612610  80.3294373  77.7421856
  60.4930305  79.5015049  78.1406975  59.9789095  80.6406498  77.2868824
  83.8555050  91.7518806  82.9390621  83.4747410  90.9173584  83.2126045
  84.3910599  92.0262527  83.6834621   9.1555560  76.1863089  64.5773697
   8.7213272  76.8296337  64.0171766   9.8591793  76.6758490  65.0033951
  62.0609570  72.9670811  65.2122545  62.9967928  72.8311682  65.3604650
  61.9348431  73.9091396  65.3256273  65.8893204  76.3304949  74.1538095
  66.6653872  76.6121912  74.6381569  66.2176085  75.6806326  73.5324097
  48.1350756  12.2502053  17.7410388  49.0217209  12.5772834  17.8930545
  47.5654268  12.9085851  18.1388652  66.9359159  32.6994991   3.9435354
  67.3211765  33.5097551   4.2771423  66.3513231  32.9837966   3.2409284
  60.3232002  93.3140755  87.6376820  59.8399305  92.9230785  88.3655548
  60.6908846  92.5670052  87.1655273  27.8386068  17.6691580  89.9789429
  27.1923018  17.9188251  89.3184948  28.6573911  17.5801814  89.4911861
  74.4283724  60.1836157  91.1409378  74.1778898  59.5741081  91.8351936
  75.3844500  60.2101469  91.1789608 107.7253914  65.0766373  81.8078709
 107.7458382  66.0260057  81.6873741 108.6467266  64.8210430  81.8530369
  13.6031663  20.0062656   7.2698820  13.0624247  20.5842018   7.8082287
  13.5428894  19.1530097   7.6994801  90.0283241  71.5564871  71.0572672
  89.2934036  72.1023178  71.3368988  90.7631874  72.1650553  70.9808254
  52.1208811  68.6172485  11.8880546  52.1904516  68.6490488  12.8421926
  51.1810589  68.6706209  11.7145228  89.6796989  53.3565950  88.4930515
  88.7489033  53.1341887  88.5124397  89.6980000  54.2940569  88.3005428
  61.9684887  13.3980966  22.8811669  61.0947323  13.4002304  23.2720351
  61.8108463  13.4919596  21.9417167  67.7442741  68.4161043  79.4109631
  68.4321499  68.9576340  79.7980022  68.1284761  68.0848646  78.5992384
  46.6796780   0.4939793   7.7960384  46.8210316   0.9469755   8.6273295
  45.8815098   0.8863309   7.4421674  92.6873970  45.9538555  73.6476278
  92.7530193  45.0466061  73.3495903  91.8308258  46.0052776  74.0717316
 109.7636414  62.4730158  56.9041300 110.0891876  62.9699707  57.6546526
 110.5503559  62.2428989  56.4097881  70.0452709  81.7278481  60.1824141
  70.0557137  81.1017609  60.9063911  69.3801689  81.3896179  59.5828533
  51.4140320  78.0611706  32.2073650  51.4952278  79.0077782  32.3238921
  51.2602758  77.9476261  31.2694407  51.1529970  41.0656881   1.9922091
  50.9097385  40.7570887   2.8650337  51.0598946  42.0171499   2.0399983
 100.8247089  80.5585957  58.3021641 100.3847313  79.7588253  58.5902882
 101.7341900  80.2946949  58.1627464  72.5185871  53.9571524  60.9758949
  72.0783901  53.3817101  60.3503370  71.8170404  54.4981003  61.3384438
  80.4450512  72.9871416  55.2678013  80.8019447  72.4622679  54.5513058
  80.2495956  72.3513746  55.9561491  50.3920078  25.1486468  20.5858088
  50.4291153  24.8778701  21.5031624  49.4675016  25.0707722  20.3503036
  87.0075989  76.7211771  66.2627363  87.6477051  76.4283943  65.6140614
  86.6887474  75.9137344  66.6659737  86.9311333  72.9169083  51.5834808
  86.1096191  72.4272490  51.5436649  86.6728878  73.7958145  51.8610859
  28.4464741 100.0972462   9.6999556  28.3155394 101.0120773   9.9492937
  29.3861270  99.9512863   9.8094279  85.4508972  79.1252136  75.9095383
  86.1172104  78.8163853  75.2956295  85.8684349  79.0609884  76.7684746
  67.2677088 106.9847298  76.4145994  66.5461969 107.5307846  76.7267990
  66.8488836 106.1697578  76.1377668  73.2271528  90.5023575  59.1608000
  74.1215754  90.8045101  59.0028620  73.3306742  89.6102047  59.4918203
 111.0552025   7.7380764  49.4847059 110.6410789   8.1632614  50.2356720
 110.5526733   8.0434245  48.7294149  15.3590488  99.2746067  51.5491581
  14.5705855  99.5515728  52.0158958  15.2879882  98.3211327  51.5037203
 110.1970387  74.2623281  64.1465902 110.3613663  73.4609270  64.6435642
 111.0056496  74.7673368  64.2322683  29.7505879  83.4076691  47.2034931
  30.3278899  84.1678143  47.1318531  29.0489936  83.5797215  46.5754843
   4.3665302  62.0852995  71.8774176   5.2881074  61.8265963  71.8776894
   4.2517951  62.5619173  71.0552835  84.2067337  92.9343414  80.5068111
  84.1303349  92.7891827  81.4498425  83.5120773  93.5608387  80.3038597
  99.1340733  74.4613838  74.8585033  99.4047642  75.2329493  74.3608665
  98.6651611  73.9194727  74.2239237  55.1514196  81.9428444  66.9131184
  55.2703428  81.2162590  67.5248051  54.6349430  81.5716362  66.1977959
  55.4785156   6.6874921  14.8812544  56.0998726   7.0198935  14.2334473
  54.6188450   6.8405753  14.4891322  88.3324718  70.9921885  68.4463501
  88.7745190  71.6464520  67.9052782  87.5896358  71.4596033  68.8283777
  73.3213854  60.3048992  54.8031569  73.2295895  60.0602531  55.7240009
  74.1851807  60.7137394  54.7489166   2.9648697  80.5971622  89.5687771
   3.4938043  80.7833767  90.3445244   2.6414946  81.4532852  89.2882156
 105.2083111  94.9624062  86.9326782 105.7791901  95.1608086  86.1904049
 105.5810452  95.4592323  87.6610088  78.6678934  89.4190311  88.0470371
  77.9025316  89.9911499  87.9910374  78.4204149  88.6386871  87.5510025
 100.1719952  86.0048771  61.9355249 100.2497387  85.7951641  61.0048199
 100.0785542  86.9572067  61.9594717  68.5114098  73.5371208  85.7263851
  69.0912199  73.6294508  84.9703884  67.6943445  73.9547825  85.4540062
 106.0192108  79.5787621  79.8832607 106.5552521  79.7157526  79.1021585
 106.3733482  78.7830067  80.2802467  80.3019428  68.1565523  51.8456888
  79.9044752  68.8398552  51.3059139  80.3563023  67.3957825  51.2673235
  76.7744493  73.2957411  86.0954666  76.9450569  73.0793762  85.1787853
  77.4066925  73.9845085  86.3006687  40.1607943  12.5286078  31.2838960
  40.1389503  11.6451693  30.9160805  39.2435098  12.8011596  31.3070464
  13.1134522 105.7514763   4.3374196  13.6367822 106.5495396   4.2636350
  12.2196341 106.0321712   4.1411340 103.9975739  38.9826345  68.2141304
 104.2302227  39.7926712  68.6679411 103.1337166  39.1570187  67.8405380
  90.1760578  25.5420828  16.0254359  90.6724739  24.8343587  16.4364409
  89.2665672  25.3694701  16.2688923  86.2197876  97.3584843  54.8397589
  86.7998409  97.8813362  54.2862320  85.4111481  97.8683758  54.8881865
  75.0334358  94.8596096  81.4974308  75.0226736  95.6117058  82.0894241
  74.1384554  94.8058128  81.1622429  91.8692112  87.1170139  79.2666578
  91.8940830  87.1775436  80.2216244  91.9346523  86.1796284  79.0843010
  19.9506891  17.2360921  26.9329047  20.8221984  17.6069379  26.7944264
  19.9455643  16.4345551  26.4096975  91.4086723  77.1095610  54.6624327
  91.7552376  77.3833561  55.5116463  90.9870148  76.2679243  54.8358965
   7.9302043  86.4132309   8.3401293   7.7091211  85.5826664   7.9187936
   8.4323901  86.8906116   7.6797128  43.0900812  17.1176100  25.7278728
  42.5183821  17.8820348  25.6568551  43.4773111  17.0264149  24.8572564
  50.8844614  85.7014465  78.2794666  50.5789900  84.8515224  78.5965776
  50.2017736  85.9906769  77.6740646  43.5708094  86.2036991  58.4031439
  43.1454515  86.0970974  59.2539883  44.4013023  85.7358074  58.4902525
  97.0309734  62.5942898  67.5778341  96.4262486  62.3559999  66.8751526
  96.6703224  63.4035969  67.9400253  64.8499250  69.9649191  86.9494534
  65.1865816  70.4975700  86.2289047  64.6992826  70.5895138  87.6589680
 103.9520168  66.8732882  80.6303120 104.2220211  65.9662104  80.7735920
 104.6893311  67.3954487  80.9464455  23.8820004   1.9811691  83.8651752
  24.3760252   2.2458707  83.0892181  23.9281797   2.7387196  84.4484520
  79.6623135  72.1533871  86.9489574  80.1421928  72.7397394  87.5338745
  78.8726997  72.6415014  86.7155170 100.4621601  68.4854650  88.6206150
 100.9015656  69.1446829  88.0834103 100.8551025  68.5826254  89.4880199
  25.3706527  37.6135755  10.9420598  25.9403777  38.3604312  11.1260557
  24.8284411  37.5270605  11.7261207  22.9835343  78.5893679  37.2505617
  22.0805502  78.6568689  36.9402480  23.1566596  79.4326639  37.6690245
  66.6670084  77.0650244  42.8100538  67.6084518  77.1846199  42.9349995
  66.2659788  77.5548315  43.5280323  65.0841713  69.5335245  82.1194935
  65.3755903  68.9313412  82.8040981  64.3048906  69.1177368  81.7506027
  82.7684212  74.8450994  44.1628647  82.0660114  75.2515602  43.6552763
  83.4473515  75.5179262  44.2137957  60.7923508  31.8080258   7.6603585
  61.3351870  32.5621200   7.8903568  60.2921009  32.0968962   6.8971193
  76.1449909  91.3830280  73.5043097  76.0959005  90.8673382  72.6993990
  77.0438480  91.7115211  73.5238552   7.7043366   6.7830026  -0.0760628
   8.1730771   6.0646635   0.3487944   7.4125957   7.3390657   0.6463725
  89.6633053  74.2347574  74.3949842  90.0983810  75.0870991  74.4161797
  88.7318039  74.4430590  74.3232346  77.5730610  91.3832569  64.3486738
  76.7380810  91.7923069  64.5760965  77.9002190  91.8999958  63.6123419
  68.9573002  93.3275986  73.3286619  68.9006281  92.7459526  72.5705671
  68.3667421  94.0513992  73.1198883  94.9116898  64.9573374  91.8348885
  94.4474888  65.6418085  91.3529778  94.2174053  64.4233561  92.2209740
   8.7478477 103.5780811  17.6655710   9.3716723 103.1151867  17.1062899
   8.3266729 102.8874588  18.1773198  83.3740711  58.6651850  76.0542440
  84.1355610  58.7364340  76.6298151  83.7383461  58.6994743  75.1697350
  79.2238903  68.0500317  87.6223469  78.3453846  68.1993198  87.9718781
  79.0802717  67.5492525  86.8193436 105.2182674  66.1993027  64.8687315
 104.2912388  66.3734293  64.7058535 105.6809998  66.8269777  64.3136358
  39.8581386  41.3032341  43.1208706  39.0366912  41.1510086  43.5880804
  40.3150654  41.9592381  43.6472845  90.3907108  62.4035883  67.4795341
  89.9143887  61.6363001  67.1623421  89.8566055  63.1482506  67.2030449
   4.4194478 105.1151752   8.8998646   5.1322252 105.6329346   8.5255629
   3.8330644 104.9464607   8.1623530 100.9657574  77.0723724  56.7645168
 101.1992168  77.9998064  56.8044472 100.1426601  77.0533895  56.2762594
  81.6725636 106.6655540  86.0556889  81.4244747 106.8945599  85.1600170
  82.2319698 107.3878193  86.3413811  97.8684616   5.7001698  16.7641544
  97.5012302   4.8931062  16.4035773  97.4919224   6.3961804  16.2256229
  82.5582409  67.4377155  83.1043911  81.7506504  67.5613260  83.6031532
  82.2638702  67.2777128  82.2077465  61.4178896  85.6317425  90.9646702
  61.7706060  85.2235889  90.1739597  62.1831322  85.7768345  91.5210724
  90.2433872  29.9698114   3.5439733  91.0524940  30.0318503   3.0363047
  90.1465893  29.0352917   3.7270918  98.9355373  46.2889051  42.7666664
  99.3009949  45.7853508  42.0392704  98.4606075  47.0060873  42.3467445
  31.3553596   4.2412907  22.1522713  30.4235601   4.1901782  21.9392729
  31.4629316   5.1049131  22.5507879  95.0298691  77.1235037  50.3110647
  95.8988667  77.2749710  50.6827211  94.8241234  77.9338598  49.8449945
  22.9232860  96.8581295  75.4260397  22.1216702  97.3778248  75.4856253
  23.0917287  96.5738010  76.3243818  85.9306431  86.4879417  72.3651838
  86.2085342  86.7132854  73.2530069  85.6876183  87.3254204  71.9704580
  83.7381077  55.6659746  74.9762678  83.8944626  55.1982546  74.1558886
  83.7250710  56.5899181  74.7264767  78.2761526  61.8238926  80.1000118
  79.0182924  62.1562910  79.5950699  78.0944824  60.9639311  79.7209406
  35.4494810   4.9908191   3.0864665  36.1055398   4.6701738   3.7053412
  34.7369695   5.3132248   3.6383829 113.2842731  75.9970474  59.8025703
 113.8646507  76.1494780  59.0568066 113.0403519  76.8737745  60.0993538
  49.7122115  12.2101944   0.1461706  49.0284747  11.6121071  -0.1555434
  49.2361659  12.9774588   0.4638585 107.0728016  63.9076567  89.4297409
 106.1614799  64.1846848  89.5245171 107.5399780  64.3815184  90.1178074
   5.0335914  12.2405601  10.0286734   4.3759346  12.4599695   9.3686891
   5.6286591  11.6378617   9.5827121  37.8699303  38.3636427   4.9062845
  37.9229665  37.9551911   5.7703364  37.3742151  37.7394438   4.3763104
  94.2295170  79.4333458  75.9687614  93.8148117  78.9750719  75.2378464
  94.7449493  80.1260853  75.5556393 101.6740227  79.6206379  65.0926733
 102.1028233  79.1701078  65.8202600 100.8250809  79.1864300  65.0090361
 100.4197788  56.4233589  60.1871109 101.1801815  55.9054661  60.4513454
  99.6904469  55.8036566  60.2036858  25.0215530   1.4135231   5.1517344
  24.3571591   1.2297215   5.8158344  25.8431625   1.1238348   5.5483097
  56.4481020  77.0459557  65.2024460  55.9952641  76.3438988  65.6696558
  56.2868595  76.8608236  64.2772675  82.7971649  73.6369324  82.0082283
  83.3169746  73.0549288  82.5625801  82.6560020  74.4164753  82.5454617
   4.0303421  83.0639076  51.3755655   4.1759461  82.1359348  51.1914778
   3.9718148  83.4730530  50.5121946  64.7787476  41.0264206   4.3100566
  65.5275536  40.8964109   3.7281463  65.1680136  41.2600183   5.1527536
  28.3274770  17.9537451   1.7549224  28.7180042  17.4156296   1.0663358
  28.6746359  17.5896716   2.5692707   0.8414674  56.5422010  47.0562649
   1.1465135  55.9471703  46.3713455   0.0270110  56.1490393  47.3698187
  17.9881382  26.3584971   4.2605647  17.1438444  26.3988209   4.7097567
  18.6321831  26.5434122   4.9441177   6.1397469  61.6410398  78.1569290
   6.4734536  62.5350952  78.2313251   6.6424704  61.2567377  77.4387264
  49.2417049   9.9114257  11.4510787  48.3453989   9.8135394  11.7724526
  49.3416119  10.8517718  11.3027501 104.3793774  74.9897003  86.7950249
 103.5895252  75.0620604  87.3308659 104.8067856  74.1912842  87.1049976
  81.1784077  62.2321272  61.2919617  81.0427189  62.6950884  60.4652309
  82.0826435  62.4329519  61.5333271  80.6099224  91.0713005   2.7796575
  80.6089783  91.9865036   2.4992502  79.8700047  90.6782150   2.3168004
  75.8907127  68.7584114  74.1341400  75.2933645  69.4909573  74.2850733
  76.4744043  69.0644407  73.4399605  32.1865463  28.4768200  13.7058747
  33.1425905  28.4305859  13.6972582  31.9382739  28.4739137  12.7814376
  50.0012159  52.2656345  14.1097879  49.6636295  52.9850864  14.6433187
  50.0123978  51.5133715  14.7015679  53.6003780  82.4803352  77.9407358
  54.2867422  82.7502728  78.5508823  53.7216663  83.0461311  77.1782398
  79.7065878  64.8646641  73.1483889  80.6299305  64.9462986  73.3871603
  79.4916868  65.7001305  72.7336121 103.0990887  95.3677368  77.6636219
 102.6180363  96.0055828  78.1908607 103.6247063  95.8990669  77.0655775
   4.8260820 104.2194366   3.7297219   4.0737858 103.6423016   3.8608557
   5.4538810 103.9507389   4.4004709  55.9079599  81.1538124  73.3874559
  55.2364206  80.6528091  72.9245663  55.7542610  80.9625912  74.3126822
  80.7460499  94.2451668  50.1189756  80.2188969  93.7905788  50.7760048
  80.9251213  93.5805035  49.4538498   4.6916261 100.7304668   0.6439421
   4.8972794 100.2675629   1.4561321   5.3422415 100.4146194   0.0169078
   7.7802628  39.0046048  65.2030993   8.6925107  38.7438226  65.3296995
   7.7222973  39.2302442  64.2746782 108.0282021  95.9258270  78.3157206
 108.6880112  96.5202236  77.9585457 107.2145557  96.1825657  77.8817987
  68.2653904  60.2555752  90.1620197  67.8321362  61.0236549  89.7897720
  68.7696934  60.5989981  90.8995628  76.9699907  60.4654360  56.0260773
  77.8487587  60.6327629  56.3666630  76.7904711  59.5555925  56.2631178
   0.4325423  79.4960785  91.1549473   0.6539886  78.5727310  91.2758732
   1.1426172  79.8440218  90.6155396  89.0395641  87.9702854  84.9644661
  89.9075317  87.5805569  85.0692558  88.8787365  87.9467201  84.0211678
  88.0493927  60.7048750  67.6068211  87.7644157  60.1847744  66.8554783
  88.6448383  60.1280975  68.0853653  74.9763966  88.5500431  55.9226990
  75.2130270  87.8749943  55.2866554  74.4764996  88.0833817  56.5924454
  65.2282429  65.5523920  79.3206835  65.7240582  66.0394096  79.9788761
  65.8632708  64.9423885  78.9453650 112.1633244  50.1231003  90.7548714
 111.4337254  49.5979500  91.0837078 112.0135021  50.1767635  89.8109913
 109.8264122   4.8990363   8.9438790 110.7326508   4.9287286   9.2506117
 109.4958782   5.7858503   9.0871823  50.8329582  18.0091882  27.1521187
  51.2569380  18.5576427  26.4920664  51.3935804  18.0868173  27.9240704
  88.2983017  59.7170877  74.8658752  87.9202557  59.0332651  74.3129730
  88.4089851  59.3002367  75.7204008   8.8283181  47.5993347  20.5823207
   8.1301153  47.9578972  21.1302090   9.6063977  47.6239920  21.1392927
  58.1152487 102.2520638  75.0588417  58.5625076 102.8472233  74.4571877
  57.3666620 102.7544975  75.3804111  97.7029514  74.6125126  70.1605940
  97.7419472  73.9936686  70.8898020  98.2149696  75.3648663  70.4573011
   3.8160753  78.7328529  69.1098547   4.1324145  79.4255304  69.6898174
   3.2612199  79.1865063  68.4753752 108.8690567  98.0490398   6.9358492
 109.6048737  98.1275463   6.3286901 108.6658001  97.1137238   6.9461799
   7.0139033  39.7106314  79.9855900   6.7488736  39.8098612  80.9000015
   7.1484452  40.6065559  79.6766424  75.0048399   7.9014617   2.8066611
  75.0251341   8.4607935   3.5831714  75.1526308   7.0179385   3.1439692
  75.0594425  75.6410360  42.4637413  75.6240892  75.2584457  41.7921495
  75.2432919  76.5796137  42.4249935   6.1895305  83.1055164  58.5581779
   7.0170105  83.5232925  58.7968636   5.9484965  83.5102367  57.7249098
  81.3037395  62.4278641  41.9284487  81.8260288  63.1690216  41.6216373
  80.7311440  62.2167730  41.1910152  35.1862526  36.3666940   7.4481612
  35.9492421  36.9183087   7.2755295  34.7703338  36.2586927   6.5928376
  71.1343861  34.3523121  13.9491701  72.0081377  34.7109056  13.7936068
  70.5396128  35.0746012  13.7472367  86.6491890  67.7847290  82.0067501
  86.2792015  68.0893803  82.8353214  86.6167831  68.5508871  81.4338779
  71.9216108  69.3505621  65.7220078  71.1222649  69.1232109  66.1969709
  71.8243027  70.2813721  65.5211115  69.5811796  25.9165907   9.9329025
  69.6375370  24.9828053   9.7301626  69.2289591  26.3137817   9.1364026
  92.0091820  98.1431675  86.2409019  91.4332008  97.5099659  86.6693211
  92.7283096  97.6157761  85.8931160   3.9820644  72.1146727  60.8030128
   3.8121426  71.1955976  61.0095501   4.8026878  72.1017075  60.3104258
  29.2779994  36.6389775   5.3949475  28.5992312  36.0798359   5.7729238
  28.9937997  37.5304484   5.5967969  54.2684984  20.4097438  23.1737065
  54.1617823  19.7926331  22.4498153  55.1844263  20.6830072  23.1224370
 102.0746613  50.2324295  60.4367924 102.9416752  49.8943424  60.6608582
 101.9115162  49.9057627  59.5519733  60.9107351  71.4574003  89.1640663
  61.3326406  70.8722067  88.5349560  60.7443523  72.2602367  88.6701012
 102.4251366  62.2286510  56.1623001 102.7993107  62.8403187  55.5281973
 102.8557396  61.3948536  55.9736538  63.0922461  77.1939802  58.9706659
  62.9555368  76.8808603  59.8648167  63.2453585  78.1339502  59.0668392
  48.8889837  66.1615467   3.6143771  48.4457779  65.3170776   3.5326990
  49.6506262  65.9800339   4.1650054  41.7442560  32.7595210   2.5046110
  41.8730116  31.8350935   2.7169505  42.6203203  33.1416059   2.5571299
  57.6881456  24.7459745  10.5103493  57.9916477  23.8429594  10.4171753
  56.8242359  24.6677470  10.9150374  83.0549812 103.8722229  87.9963684
  83.5061455 103.0281067  87.9842186  83.4966373 104.3895721  87.3229313
  69.8862410  66.2922859  57.2589064  70.5802870  66.8885231  57.5400305
  69.2021227  66.8664503  56.9146013  64.2983866  47.9775858  37.2129583
  65.1447296  48.1564140  37.6227808  63.9959240  48.8320494  36.9053221
 102.3750496  73.4696436  62.3402119 102.2748375  72.5760746  62.0119953
 102.5612831  73.9919186  61.5599680  74.6843672  78.8179064  52.7679396
  73.8246727  78.4721851  52.5278711  74.7622108  79.6324158  52.2712040
  99.4412231  23.2721400  66.4363003  98.7433529  22.8555465  65.9306765
  98.9962959  23.9493442  66.9458675 104.3597412  86.7304993  85.0450039
 103.8560486  85.9589577  85.3043175 104.6702480  87.1023941  85.8705425
   2.3560655  94.3022251  47.8445244   3.0282021  94.0824509  48.4896278
   1.5658537  94.4520664  48.3635092  76.2883329  86.7603493  80.0087833
  77.0045328  87.0490170  79.4431353  75.8377600  87.5679588  80.2557373
  65.8256531  87.7867508  83.8492680  66.3791037  87.1058941  83.4666824
  66.4425611  88.4037018  84.2429924  35.1877809  31.0861683   0.9073239
  35.0236058  30.4885960   0.1778133  36.0578775  31.4446092   0.7321618
  32.1201706  23.1867433   0.5523036  31.3050485  22.9195070   0.9770335
  32.6888227  22.4198651   0.6213390  52.2545433  18.3022487   5.0004911
  52.6001263  17.6514864   5.6114835  52.9963255  18.5177124   4.4351906
  91.0678959  67.2691917  62.4870872  90.4141331  67.8119373  62.0463610
  91.3974667  66.6874981  61.8020678  13.7273800 102.6936245  80.9082794
  14.0931404 101.8933868  80.5313492  14.3241298 103.3863354  80.6249428
  30.4007173  57.9505396   0.1147006  30.1005626  58.7011576   0.6272554
  30.8025146  57.3665524   0.7579338  63.4712505  98.1606388  70.3644562
  62.6076889  97.8274250  70.6083155  63.4219217  99.1012478  70.5348682
 112.8994560  92.3803425  76.9669676 112.1410751  92.9583549  77.0506430
 113.4389782  92.5808811  77.7317810  66.2970972  52.0366621  24.6857548
  65.5882978  52.6557064  24.8607492  66.1996698  51.8166685  23.7592864
  85.5172729  18.5393059  36.9782495  85.8146667  18.5383320  36.0684204
  85.1066113  19.3960071  37.0950866  28.8225889   1.7531134  82.6065540
  29.1396999   1.5433002  83.4849930  28.3431387   2.5744748  82.7148247
  76.5556002 106.1512184  82.2455788  76.5086555 106.7978287  81.5413666
  75.9991026 106.5094090  82.9371357  76.0961199  70.7253265  69.5532084
  75.9628248  69.7870255  69.4188309  77.0419836  70.8470583  69.4710588
  32.7111650  36.5540051   1.5937924  32.0261717  37.0100331   2.0827234
  32.2699547  36.2307477   0.8082560  25.8929491  27.9061437  34.2747259
  25.2158880  27.3052740  33.9636397  26.7174339  27.4784708  34.0433049
  15.2043056   4.3496263  45.8929777  14.4138348   4.7927406  46.2012577
  14.8868513   3.7080353  45.2575159  68.2413435  70.7807064  86.5547848
  67.9435682  71.5417814  86.0564613  67.9427195  70.0282335  86.0440636
 104.9662590  24.6079826   8.4239769 105.6552982  24.7092485   7.7673215
 104.7915936  25.4989171   8.7272239  74.5951271  22.0506382  31.7292380
  73.9828825  22.7260923  31.4374352  74.2707062  21.2440991  31.3286400
 105.8750629  71.8577862  91.7537975 106.0909367  72.1741533  92.6310253
 106.1666393  70.9460878  91.7494965  70.4699326  25.1099563   6.5831959
  70.4946709  24.1664100   6.7423815  71.3802004  25.3919864   6.6732395
  78.3150816  75.9092999  70.2947855  78.4798574  75.1714325  69.7077322
  79.1605663  76.3524294  70.3656578  20.6953049  41.1633301   8.0274624
  20.5956411  40.9211063   8.9481294  21.2358379  41.9531107   8.0447483
 107.9346371  92.9227924  75.0691795 107.2245979  92.7616215  75.6905508
 107.9587269  92.1365261  74.5238018  71.7768145  23.2711625  13.4669125
  70.8646536  23.4052038  13.7242579  72.1390963  24.1546249  13.3999860
  38.3730268  48.9292479  15.1243579  38.7037015  48.6733437  15.9854019
  37.9524207  49.7764206  15.2714121   0.6490052  81.6992378  74.4046736
   0.4009845  82.5917149  74.1634226   1.5133253  81.5764427  74.0121126
   9.8278409 102.6429081  90.9402370  10.5660522 102.4258709  91.5095997
   9.3774885 103.3557987  91.3932323   7.0007962  70.3129005  77.9384947
   7.4696320  69.5036888  78.1424665   6.3155586  70.3671122  78.6046362
   2.6500985  89.6278667  91.3074780   3.0150360  88.9450932  90.7445621
   2.7091566  90.4269505  90.7838249  66.8383551  82.4200726  84.1159344
  67.5492430  82.3409271  83.4798431  66.1170292  82.8095627  83.6217499
  81.6332912 102.6256561  68.2437181  80.7092094 102.4175549  68.3815098
  81.6628456 103.5821724  68.2227325  45.2608633  26.7822480   5.5194676
  45.7933331  27.4886703   5.8850801  44.4957542  26.7376256   6.0929191
  27.0426702  12.4984109  83.8039970  26.3435102  11.9520175  83.4450245
  26.5984058  13.0830562  84.4180489  36.3766956  19.1047227  88.9159393
  37.1204972  18.9565361  88.3319569  36.5576029  19.9514365  89.3240833
  58.8442183  31.3061595  21.8589926  58.9134741  31.7059064  22.7259636
  59.7315311  31.0059333  21.6620994  45.8028269  29.0014887  10.9768379
  46.1967611  28.2641792  11.4431214  45.5812550  29.6290994  11.6647637
  45.3178120  17.0475435  68.9437294  44.6833229  17.3297215  68.2849216
  45.2520180  16.0926104  68.9460754  56.8597269  28.9282370  12.5718808
  56.9015312  28.0146313  12.8543806  56.0892200  28.9687538  12.0053875
 102.4578476  77.1384716  21.7943835 102.2062683  76.4342976  22.3919463
 103.3277988  76.8888235  21.4827919  88.5268116  65.5901146  84.4469643
  89.1031742  65.5976582  83.6827850  89.0481472  65.9881401  85.1441193
 100.4323101 106.6390133  70.6432056  99.4832516 106.6375446  70.5186558
 100.7803726 106.2597084  69.8362303  94.5108032  92.2756195  75.4111862
  94.6405125  91.3690948  75.1325989  95.3823185  92.5728989  75.6725740
  78.6241436   2.9155645  83.3520031  78.1369114   3.7357411  83.4304142
  79.5224333   3.1876320  83.1641674  97.9095173  85.5665398  79.7281551
  98.4895897  84.8478317  79.4767523  98.1845856  86.2999725  79.1780281
  10.8013225 102.9479313  69.8885107  11.0200417 103.8593483  69.6943474
   9.8468590 102.9407692  69.9604893  88.1870842  83.9165688  48.7063980
  88.2630730  84.2230892  49.6099997  87.7773476  84.6451378  48.2399893
  94.0967083 104.4850159  64.2991447  94.5681858 104.5504951  63.4686947
  93.2100487 104.2231274  64.0511703 106.5125751  68.2825232  63.6441851
 106.7652321  68.5254860  62.7534771 106.0160542  69.0349531  63.9659786
  31.5845609  28.4977794   1.0545249  32.0893335  28.9523339   1.7289245
  31.8649745  27.5849175   1.1199712  77.3846245  87.5962925  91.4756393
  78.2666397  87.5439453  91.1074829  77.5038862  88.0250072  92.3231125
  39.4141316  94.5508385  46.9537401  38.6417222  94.8882771  47.4073315
  39.2123938  94.6589851  46.0243130  77.6001644  67.7494097  33.5421491
  76.7657328  68.0361271  33.1710052  78.1727505  67.6344919  32.7837515
 112.3734283  80.0160599  92.8509712 113.1760120  79.7834587  92.3840714
 111.7017269  80.0510597  92.1699238 110.8022404  70.8865309  78.2331800
 111.1747837  71.4281225  78.9289761 111.4084625  70.9887981  77.4995089
  45.5077553  56.3756084  13.0017614  44.9802399  56.2320900  12.2160411
  45.2093840  57.2200346  13.3396244  11.2106431   1.3916695  76.3438654
  10.6756699   1.7113000  75.6173182  11.8981087   2.0503056  76.4429712
  63.6556673  93.4395409  33.9129972  63.1080723  92.8522682  34.4340396
  63.1579924  94.2560768  33.8702846 113.0696201  81.9610023  60.8084631
 112.1170330  81.9954681  60.7211590 113.2441425  81.1009121  61.1905766
  96.2266350  79.0911150  81.9197273  96.7208767  79.7500610  82.4073124
  96.6007233  78.2556248  82.1994495  80.1668072  60.3380013  56.4022255
  80.8375454  59.9628305  56.9728327  80.0303173  61.2222862  56.7422915
  45.4551029  82.7099419  71.2204027  46.3700771  82.8071976  71.4842129
  45.3800535  81.7951202  70.9489346  80.6251049  69.6418762  77.3278666
  79.8767710  70.1766396  77.5929356  81.2607098  69.7520876  78.0350351
  34.6908689   5.2073860  79.2463541  34.1792631   4.9489391  78.4797430
  34.7392392   6.1617810  79.1913795  11.7483461  81.0149479  64.2950535
  10.8629429  80.6762505  64.1624832  11.8118763  81.1560249  65.2396679
  96.6471767  87.3767853  90.7366180  97.0273018  88.1599426  91.1346149
  96.0078716  87.7134037  90.1087761 101.8043518  81.3359165  44.0195656
 101.0096169  81.2708855  43.4900379 102.5050926  81.0435390  43.4367180
 111.7930794  85.6459427  59.3864155 111.6337013  86.5829372  59.2729950
 112.7289581  85.5397987  59.2158365 100.7578373  83.3338642  73.1020164
 100.1401901  83.7349701  72.4905729 101.1999702  82.6586437  72.5873995
  73.1072760  24.0872097   1.1777534  72.6471186  24.1420817   0.3402116
  73.8846493  24.6331835   1.0601511  35.0726128  51.2808371  15.9620214
  34.3525124  51.5431786  15.3885567  34.6648169  50.7087994  16.6121829
  81.3704491  76.1511612  63.2617664  80.7612419  76.0307646  62.5333405
  81.1392403  77.0044041  63.6288500  40.2110195  24.5819998  16.3912547
  40.2128887  24.5871401  15.4340708  41.0056210  25.0568628  16.6348708
 113.3849430   4.9272868  68.6032200 113.4876060   5.8780211  68.5608292
 113.6481762   4.6974537  69.4943523  75.3725052  93.2776928   8.4742498
  75.0082159  93.7683582   9.2109782  74.6911526  93.3126736   7.8028548
  81.8932247  74.5310736  87.1097374  82.5953579  75.1331615  86.8632889
  82.3199177  73.8813448  87.6683235  76.5428400  78.0532694  83.6374950
  76.8372250  78.9295912  83.3892441  76.6821671  78.0128813  84.5836353
  79.8712873  72.1121550  51.2336445  79.5644093  71.3139725  51.6637135
  79.2793369  72.2263670  50.4901505  50.5375481  27.1650672  18.7543452
  50.9102154  27.8701997  19.2836285  50.5592251  26.3985014  19.3271792
  69.5112133  55.2382278  10.6518340  68.7947416  54.7736216  11.0843194
  69.9678230  54.5618582  10.1515687  41.2338448  61.2183809   9.1046411
  41.4357233  60.7488108   8.2953298  42.0308447  61.7107725   9.3010348
 100.5075550 105.4070187  43.4930611  99.9107075 106.1209583  43.7172985
 100.9058952 105.1570511  44.3267727  91.5190029  32.5122833  12.5774789
  91.3308620  31.8159771  11.9481981  91.5608978  32.0659113  13.4231901
 108.0667114  61.8340302  83.4540844 108.5828304  61.7419815  82.6532173
 108.7104321  61.7852402  84.1608143  52.8846359  49.0892982  17.1332967
  53.6103153  48.8746357  17.7194202  52.1458149  48.5833979  17.4715948
  73.9145947  70.9704208  78.3009100  73.0955696  71.4503479  78.4237766
  74.0312672  70.4830503  79.1164398 108.7056828  86.1250305  73.1133080
 108.9784718  85.3287411  72.6575184 109.4898224  86.4146137  73.5796881
  59.1674042  89.7299480  51.3520718  60.1214504  89.7521210  51.4264727
  58.9961338  89.8794365  50.4222631  11.8708456  17.7828598  65.4846478
  12.3744512  18.5059571  65.1108265  12.4152660  17.4571991  66.2014341
  28.6732221  12.4026620  76.1634350  28.5741568  13.2704198  76.5551186
  29.6190929  12.2581041  76.1376095  54.4302559  17.3875344   7.0669502
  55.1938057  17.0551968   7.5389451  54.1746712  16.6688633   6.4886588
  70.9217215  59.1681957  89.0389061  70.1909113  59.7560835  89.2300701
  71.0606813  58.6859274  89.8539734  90.9924412  58.7803507  72.8288984
  91.8093109  58.3926964  72.5147724  90.7909584  58.2976103  73.6305189
  55.3920603  23.2710266  10.9174907  55.6547689  22.3571253  11.0270333
  55.0720263  23.5333467  11.7806232  61.6197157 106.2576866  67.2246933
  61.1095858 107.0674992  67.2388172  62.5287151 106.5457344  67.3082495
  99.0327644  70.3595924  62.9564524  99.9350166  70.5779648  63.1898832
  98.9114094  69.4665194  63.2788277 106.4464664  53.5023689  53.4975863
 105.6774235  53.0332470  53.8211918 106.7309475  52.9986620  52.7349710
  65.1019192  42.0667839  36.3564134  64.6421432  41.4382124  36.9129515
  65.9576178  41.6672802  36.2001824  81.6748047 102.7885914  85.3277111
  82.0708942 103.5756302  84.9536514  81.7802811 102.1217251  84.6491814
  74.8386717  55.5524254  82.7026176  75.2437782  55.0087738  82.0269203
  73.9070368  55.3376579  82.6561546  84.2584896  88.5401726  75.0236797
  83.3742619  88.3139610  75.3121281  84.8346043  88.0805206  75.6344509
   8.7878388  95.8431625  70.2610683   8.2342321  95.0624084  70.2483559
   9.4279230  95.6717014  70.9518099 111.0141945  83.7508869  48.6391068
 111.4660263  84.5633221  48.4110117 111.2665462  83.5832787  49.5471001
  47.3275328  40.1245737   6.6616070  48.1519890  39.6738100   6.4790821
  46.7342138  39.4311094   6.9502485  90.1624298  77.6630068  52.2879076
  90.5512524  77.4076700  53.1244755  89.6869278  76.8847466  51.9973278
  59.2904949  95.9698486  92.1762180  59.7571468  96.4971447  91.5278149
  59.5263290  96.3608456  93.0174828 109.5658398  39.6039677  85.1471615
 110.4837990  39.5112848  85.4020786 109.5850945  39.6377611  84.1907501
   2.2281423  15.0811338  70.9051657   1.8656722  15.4071438  71.7289162
   2.4133408  14.1573143  71.0739565 110.3124619 102.2041893  90.5881786
 110.7389259 101.7009640  89.8945427 109.8063087 101.5559006  91.0778236
  86.0591698  90.0448227  85.4291248  86.7842484  89.8722649  86.0297203
  86.1039639  89.3343830  84.7892094  83.6381435  68.7395716  50.6149149
  84.2959499  69.0722609  51.2255239  83.1969738  69.5234585  50.2876139
  18.6624491  16.4796352  78.8082838  19.5521307  16.5479743  78.4618330
  18.3308017  15.6539381  78.4554863  77.2296953  71.1781311  59.4480371
  76.4128590  70.7767725  59.7445488  76.9551563  71.8366385  58.8098907
  88.3463669  48.7779427  87.0657253  87.7652740  49.4685936  86.7470455
  88.2089806  48.0504465  86.4590073  58.3141804  57.5291204  18.2155824
  58.8827896  56.8183470  17.9194200  58.3217621  58.1582975  17.4942577
 103.3158207  74.4227600  74.5787048 103.4601498  73.5023165  74.3591833
 103.6527061  74.5120430  75.4701996  34.0849900  18.7810254   5.0482297
  34.5365143  18.8063192   4.2045960  33.4645104  19.5088685   5.0097173
  96.6493797  44.9300766  37.5240183  97.1248150  45.7603216  37.5537992
  97.2715473  44.2855549  37.8612494  50.9947300  49.5212841   2.1318704
  50.5968666  49.9078083   1.3517809  51.7410231  50.0883389   2.3261005
  75.5657196  78.8943624  79.6698046  76.5216780  78.9290619  79.7039938
  75.3729677  78.1237841  79.1356850  25.4748797   3.2003820   2.8990290
  24.7320938   3.5023963   2.3762584  25.1113939   2.5125045   3.4566432
  57.8067589  76.9562912  51.9129705  57.7868605  77.8599453  51.5979433
  57.0411825  76.5456343  51.5111208   7.1970803  78.8491488  88.5333443
   7.4396867  77.9471493  88.3241463   6.2998605  78.7860489  88.8608265
 108.4258556  84.6147442  70.7317305 108.4264660  83.6975670  71.0056257
 108.1752777  84.5887756  69.8082781  84.6731853  65.3177357  73.3122921
  85.2322674  65.7365322  73.9667082  85.2410889  64.6740961  72.8886843
  63.3584785  23.4782743   2.4907510  63.8347864  23.6409163   1.6765577
  62.4355078  23.5152602   2.2397766  67.3842001  73.2724047  65.6331348
  66.4597702  73.0561686  65.5110598  67.8066015  72.4305534  65.8036995
  81.6173744  75.7178354  74.0285921  81.0904408  75.9575796  74.7908878
  82.5168610  75.6993389  74.3554211  86.1398125  73.7894964  86.4746857
  86.5621567  74.5386457  86.8949604  85.2297115  74.0620756  86.3578987
 106.3238621  80.3488636  86.3111877 106.5361595  81.0796547  86.8917942
 105.5932522  79.9051523  86.7419624 103.2775688  73.0905151  78.7226915
 103.1960583  72.1778679  78.9995623 103.2783413  73.5894632  79.5395660
 112.9492950  68.2050276  58.9727545 113.7159348  67.7743340  58.5946131
 113.1695366  69.1365051  58.9646482  94.4457054  78.1867409  43.7521887
  94.8789597  78.8748264  43.2471561  95.0100327  78.0577469  44.5145082
  96.7120647  78.8220549  38.9487195  97.0361614  78.1279850  39.5227146
  97.4945259  79.1531134  38.5078287  24.0538430   5.4730844  82.2560978
  23.7051749   5.5838335  81.3715649  24.6840858   4.7569838  82.1771908
  79.4879198  83.6361027  55.1402569  80.0366116  83.6797905  55.9233665
  79.7416592  84.4031334  54.6269178  64.3790865  72.9219007  79.1480780
  63.6118555  72.3495626  79.1517115  65.1051521  72.3507595  79.3987942
 112.0028973  13.2164598  82.4698353 112.6936436  13.2585526  83.1311512
 112.1030903  14.0247989  81.9670582  88.5364151  75.9898758  70.6848812
  88.6422920  76.7500401  70.1128864  89.1800404  75.3577900  70.3648138
  62.7524376  96.2048054  30.6065297  63.5824823  96.6814613  30.5995607
  62.6184368  95.9706020  31.5249133  81.4462566  11.3829947  21.8956327
  81.8396664  12.1739733  22.2641611  82.1618557  10.9571636  21.4235926
  62.0517874  46.1925697  20.8372474  61.9048882  46.3672829  21.7668319
  62.8781939  45.7102442  20.8118677  98.3811855  90.7456207  69.8625708
  99.2113686  90.6928253  69.3890285  98.5884285  90.4365540  70.7444811
  76.1433649  37.5651979  16.4171255  76.5675402  37.6039982  15.5599177
  76.5014505  36.7773223  16.8261027  99.6545029  98.3966160  74.7248793
 100.1985073  98.9678860  74.1827154  99.8006725  97.5196075  74.3703175
  87.8860950  93.5905838  64.8394060  88.6998177  93.0886936  64.8862362
  87.5879002  93.6486149  65.7471180  88.2111168  71.1021852  53.1015205
  87.8687382  71.9415426  52.7941322  88.2223225  70.5478668  52.3212433
   0.2043009  74.5501089  47.3427200   0.1222944  74.2222166  46.4471769
  -0.0879812  75.4601955  47.2922754  28.4150362  90.6800938  75.4505730
  29.3395948  90.6707191  75.2029133  27.9709530  90.2240372  74.7357082
  90.4297638  31.9222307  17.5532961  89.5956802  31.5148854  17.7870059
  90.8728981  32.0581841  18.3907795  76.3441277  58.4145498  16.1715400
  77.1457577  58.4520435  16.6932797  76.2904644  57.5044155  15.8799779
  77.4277067  22.1255755   7.7041906  78.1488085  22.4105263   8.2654834
  76.6385984  22.4117708   8.1642246  67.2172546  82.9000378  76.1684370
  67.0512724  82.7883148  77.1044922  66.6131735  82.2910023  75.7437086
  53.2182503  69.0167189   9.0005630  52.8920317  68.7852478   9.8701817
  52.6781750  68.5051727   8.3981729 102.6044083  79.6744442  87.2964382
 103.2565498  79.5436239  87.9847908 103.0930424  79.5681429  86.4802456
 112.1911907  38.8493156  84.1094780 112.6539421  38.3053803  83.4721184
 112.2878933  39.7419238  83.7776184  46.2155533  17.7429903  12.6081145
  46.4788818  18.6001480  12.2731948  46.4738178  17.7562845  13.5297191
  -0.0580233  73.0406237  77.9515362   0.1151855  73.9309216  78.2574892
   0.6052062  72.8851700  77.2790813   4.3675303  89.4045734  80.3401852
   5.1159614  89.2547607  79.7625685   3.7814221  89.9654961  79.8321676
  92.0252800  87.7621078  62.8016615  91.0801888  87.7828503  62.9519701
  92.3630714  87.1783733  63.4809208 110.3240281  82.9492099  92.8709086
 110.7156831  82.3499329  92.2355297 110.6078273  82.6150758  93.7218174
  86.3390160  95.7178879  10.3759038  85.4423904  95.6035995  10.6909072
  86.4319611  95.0699043   9.6775371  72.6507950  48.8206482  91.1295891
  72.1925640  48.7574291  90.2915859  73.3131170  49.4974518  90.9899521
  99.8806381  73.1310749  32.7851176 100.4650784  73.4533262  33.4712791
 100.3666210  73.2693243  31.9721341  38.6439466  19.7062862  12.1108663
  38.5532713  20.5822349  11.7357326  38.6963153  19.1250491  11.3521492
  82.1896458  67.9634571  74.4400454  82.8952885  68.2318640  75.0284767
  82.5534630  68.0776072  73.5620737  54.8638773  62.1386051  87.3202991
  54.0877199  62.4645948  87.7758694  54.5660496  61.3432550  86.8787766
  92.3614979  66.2485266  70.7475758  91.4218330  66.2549400  70.5653238
  92.7580452  66.6514349  69.9751472 109.8583889  77.1259117  90.1596165
 110.1772594  76.5110064  89.4989681 110.4508591  77.8749752  90.0953960
  59.4125652  23.6217737  84.3391705  59.5188332  22.7361465  84.6864510
  60.1522875  23.7353897  83.7423897  59.8046589  41.0727549  37.6280403
  59.2987633  40.7068491  36.9024944  59.7229004  42.0206547  37.5229907
  77.4986839  25.2704334  30.1148629  78.1722641  25.9278440  29.9406934
  77.9647779  24.5616055  30.5582070  45.3417015  26.7151594  21.3371277
  45.7527494  26.0683846  20.7635808  44.5325899  26.9556665  20.8857679
  61.9973183  74.9520969  58.0102110  61.1266565  75.3495598  57.9957342
  62.5711918  75.6443357  58.3383942   0.6419350  84.9695396  85.3238106
   1.5870313  84.8469830  85.4132748   0.5028928  85.0814533  84.3834019
   9.1385877  90.1426220  77.0009184   9.9784642  89.8750687  76.6277456
   9.3716693  90.7401466  77.7114630  69.1247559  86.0913658  64.5342445
  68.5714579  85.3116226  64.5799446  68.5328817  86.7888546  64.2524052
  96.8405914  90.5170250  83.6558437  96.2943363  90.2551174  82.9147339
  96.9910622  91.4530182  83.5234928  90.6714821  48.4451294  65.9381485
  89.9562073  47.9160261  66.2912273  91.4224720  48.2331228  66.4924955
  65.6576729  76.7434597  35.2128792  65.9860229  77.2712994  34.4850016
  66.0960960  77.1010876  35.9849668  -0.0779679  79.3226624  79.9305773
   0.7412004  79.4694328  79.4576597   0.0112528  79.8405409  80.7306290
  19.9157166  45.5777836  18.6318707  19.9191344  44.9025440  19.3103015
  20.5743122  46.2099171  18.9197838  85.1953697  25.8040190   4.5453307
  84.8448086  24.9431133   4.3169001  85.8005142  26.0127401   3.8336632
  73.3362865  26.5219355   4.5213538  73.0888844  25.6075907   4.6591821
  72.8441906  27.0058084   5.1846337  70.9285069  83.9468193  84.2105293
  70.4127312  83.4026527  83.6154747  71.7770958  83.5070038  84.2624760
  69.5156384  82.3492146  87.3247242  69.5255136  83.3025742  87.2396374
  68.6102343  82.1014118  87.1374702  60.1643515  43.8019896  12.7567232
  60.3954649  43.1485558  12.0965385  59.4908667  43.3775949  13.2882726
  15.0315630   6.5485829  76.6858530  14.6972585   7.4331909  76.5377235
  15.7800591   6.4731753  76.0939932 111.6385365  64.7965384  66.7952347
 110.8686066  64.6669626  67.3490047 112.2682095  64.1452217  67.1043015
  80.7937336  79.8926115  74.4863415  81.5189552  79.4888687  74.9630737
  80.0710964  79.2717695  74.5789719 112.5704288  83.9947891  80.0823402
 111.9514656  84.4407558  80.6604671 112.0834923  83.2432938  79.7441435
 101.5099335  87.9849815  72.6128006 100.7303333  87.9977703  72.0575571
 101.7455006  88.9069557  72.7161980  17.4750412 105.2036953  81.9991684
  18.1622374 104.7151375  82.4522686  17.1977007 105.8679771  82.6300716
  55.8341408  47.4202347   0.9734461  56.6557407  47.8999233   1.0788046
  55.9843779  46.8506956   0.2189338  99.1067505 101.5425301  84.0234089
  98.5776711 101.0266113  84.6317959 100.0114155 101.3332081  84.2557907
  62.7184963  73.1854677  10.0246930  62.9062510  73.9505816   9.4810152
  62.0488644  73.4865522  10.6388366   0.0109529  77.8083706  64.5878458
  -0.1661635  78.5506725  65.1656389   0.4913854  78.1871653  63.8516855
  86.8739986  80.8525372  82.2329998  85.9476280  81.0283756  82.0682335
  87.2805882  81.7185783  82.2626877  13.5378873  77.2295284  75.8167124
  12.8422475  77.3974752  76.4524078  13.0756068  76.9904947  75.0133514
  15.9177542 103.0137157  86.6323566  16.6407514 103.6043739  86.4211082
  15.1895893 103.3244610  86.0943604  89.3265724  38.2450414  22.1040726
  89.0108299  38.1498575  21.2054753  89.2069054  39.1736865  22.3028851
  74.7287512  44.9162006   0.4839997  74.9930477  45.6839943  -0.0228254
  75.5353642  44.6168852   0.9035395  48.5615683  16.2002802  75.6780672
  47.8126764  16.3767040  75.1086235  48.3227158  15.4007828  76.1470938
   0.2175403   2.7070782  83.4788227   0.6217468   2.7517778  84.3453407
   0.8419176   3.1450385  82.9004002  13.5845363  61.6667366  70.7678747
  13.9972138  61.0804749  70.1336622  14.1180205  62.4610710  70.7422161
  95.1204395  88.1126118  88.8012314  95.8345222  87.9303551  88.1904125
  94.3374825  87.7842045  88.3592319   2.1107119  64.9316549  88.0685425
   2.6086518  64.9958420  87.2535801   1.8636353  64.0086889  88.1261921
  14.0957057  94.0846157  90.2028656  14.3628573  93.1660271  90.1703358
  14.6182966  94.4610977  90.9109497  39.9658608  48.6710453  12.6033294
  39.4187641  48.3765602  13.3314729  39.8786092  47.9822922  11.9443607
  15.1346290 105.4019260  69.8383427  15.1152217 104.4560528  69.6928167
  15.7643175 105.5220222  70.5491877  48.5033703  14.0263820  82.3176956
  48.2821846  13.7510836  81.4280224  47.8376484  14.6774387  82.5394344
  46.7521143  68.7203693  66.0247278  46.4591217  67.9779959  65.4962683
  46.4697790  69.4911289  65.5323362  26.1980534   5.3458244  74.5939875
  25.8346105   4.4705248  74.4598532  25.8695245   5.8574504  73.8547039
  94.5050526  69.4460058  50.5845594  94.2345810  70.0874901  49.9276209
  94.3515873  68.5977602  50.1684380  50.5794334  96.5787792  67.8035545
  50.0867176  96.5893936  66.9829750  50.7661772  95.6529045  67.9588413
  25.5372810  71.8181562  90.5656147  26.4391804  71.5341234  90.7143974
  25.3890705  71.6658115  89.6323109  96.5079117  85.1738262  59.6039009
  96.8675327  84.5173359  60.2004957  97.1095943  85.1761055  58.8594484
   5.5416715 107.3353291  89.4366074   6.0314769 107.8101063  88.7651062
   4.9770474 106.7391586  88.9446545 100.8431721  64.7257566  48.6042786
 101.1829281  63.8728428  48.3334684 100.4682446  64.5699739  49.4711065
  26.1729980  86.7632675  86.3061905  25.8951759  85.9417820  86.7114258
  26.3076520  86.5422058  85.3846455 111.5206051  12.0611143  87.5466061
 111.0838413  12.2243929  86.7106628 110.8976364  11.5299630  88.0426025
  80.0073814 105.1363468  67.4440098  79.3998814 104.4181728  67.6212168
  79.5226383 105.9253883  67.6862144  96.3920975 102.9013443  59.0755081
  96.7058945 102.8254795  58.1743908  96.9091797 102.2607803  59.5639133
  24.6415925  17.0565474  86.3340759  25.2388453  17.6494884  86.7900753
  24.4685578  16.3584435  86.9656944  58.1536913  48.5186815   0.8339481
  58.2300663  49.4608068   0.6829558  58.4280729  48.1206846   0.0077841
  23.4909248   7.2134382  90.5732918  22.9796767   8.0115974  90.7067013
  23.2074213   6.8873709  89.7191620  97.9271793  36.8625045   5.1081771
  97.2983646  37.0553231   4.4127321  98.6909580  37.3990250   4.8959932
  62.5958538  32.1427655  38.3047509  62.3802328  32.6326966  37.5112104
  63.5491323  32.0590162  38.2829285   4.7532603  85.0665379  69.6909380
   3.9411643  85.3762054  69.2898893   4.8703671  85.6268692  70.4581070
  65.9094620   4.3543127  73.8055277  66.3802576   3.9256325  73.0908155
  66.5069914   4.3017018  74.5514631   6.6878599  89.6627903  86.1899471
   7.0212936  89.0351486  86.8311310   5.8952075  89.2530346  85.8434868
  63.7408638  61.3888407   8.4157729  63.2329369  62.0914936   8.0101651
  64.1913891  60.9661674   7.6846069  42.4701929   2.6230773  84.5162582
  42.0798874   3.0905062  83.7777424  42.0952988   3.0428550  85.2905178
   5.7410258  51.8322659  46.8361139   5.6293136  51.8065786  45.8858013
   5.0576806  52.4289036  47.1415663 104.9526978  59.9329233  62.4665737
 105.0403786  59.8678350  63.4175253 104.0454769  59.6825218  62.2919989
  58.8180447  40.5421162   1.4403991  58.0055237  40.9364367   1.1233041
  59.4819260  41.2177420   1.3024518  66.3448811  72.8682375   4.2767093
  67.2140026  73.2636786   4.3437028  66.4632702  72.1294022   3.6797696
  65.9030676  22.7185822   0.5278403  65.1318645  22.3031974   0.9137662
  66.3135386  22.0266151   0.0092595  41.5963507  26.7764878  34.2157483
  41.5439510  27.6465178  33.8201046  42.4413061  26.7683673  34.6654367
  40.4475594  18.5561979  54.3444157  41.1332560  17.9188156  54.5438957
  40.1287460  18.3018863  53.4784412  55.0461245  83.4205532  59.7124100
  55.8844423  83.4912109  59.2558336  55.2341509  82.8736115  60.4751301
   1.0603508  50.0178432  91.2351227   1.0267022  49.0974903  91.4959908
   0.2815150  50.1416445  90.6926060  14.2964172   3.9850733  66.3637209
  13.5629821   3.3866641  66.5058899  14.6545780   4.1369915  67.2382927
  20.5551934   6.3151532  78.6662054  19.7164512   5.9994042  78.3299828
  21.1421561   5.5628562  78.5903263   2.8066280  55.3760099  73.1767178
   2.6077580  55.8470821  73.9858961   2.9733688  56.0648584  72.5333500
   7.6713032  97.2768497  85.3740597   7.7929175  96.5112114  85.9355164
   7.6084870  98.0127811  85.9829044   0.1339590 103.2133865  70.8507967
   0.9823405 103.4621143  70.4838991  -0.4159439 103.0401802  70.0867033
  10.0207663  88.9979839  66.0048056   9.7500539  89.9074554  65.8790493
   9.5111972  88.5052776  65.3615284  42.9251432  15.4820037  67.3367786
  41.9755936  15.5996513  67.3639393  43.2666206  16.3441682  67.0994997
   5.6235087  82.7211761  68.7075329   4.9498740  82.3315334  68.1501961
   5.2365786  83.5416985  69.0129137  97.7209282  35.0516438   0.6487134
  98.4446812  34.7140670   0.1210265  97.7230740  34.5060110   1.4351696
   1.2469731  99.8921394  90.1896000   1.5153548  98.9800358  90.0788116
   0.8502249 100.1285839  89.3511963  40.5078363   3.2677338  43.4767771
  41.1459208   2.5923234  43.7067795  41.0387564   4.0288961  43.2422781
 107.2928619  72.6348162  63.9376116 107.6434135  72.1732283  63.1758499
 106.5522099  72.0993853  64.2221737  40.9526920   2.1019496  56.6244507
  41.7358875   2.1774361  57.1695614  41.2610102   1.6883153  55.8181763
  14.9035406  74.4320679  57.0306396  15.6443226  73.9564228  56.6548204
  15.2282917  74.7560453  57.8707600   2.1733406  89.8950672  61.5272951
   2.0330451  88.9512825  61.6035700   1.5441635  90.1778793  60.8636761
   4.2457542  92.9731655  56.5494919   4.1812906  93.3476734  55.6709623
   5.1838231  92.8386688  56.6842842  20.5772519  72.2425222  57.3196554
  21.2792253  72.4185514  56.6931725  20.0495601  71.5612745  56.9029140
  13.6641860  99.5685863  67.8383970  14.3016553  99.8314571  67.1744967
  13.0816877 100.3233910  67.9232740  19.8580658  79.0506554  81.1674213
  19.7304702  78.8581848  80.2384949  19.3206239  78.4022760  81.6223812
 111.6083908 103.6332798  53.6083651 112.2667217 103.6107540  52.9138756
 110.8016872 103.8961792  53.1652498  60.7701492  60.0856352   6.9689155
  61.3231659  60.6106472   6.3903230  59.8968363  60.4662800   6.8758339
 108.2826710  73.7513733  54.1541719 108.3121872  74.5249748  53.5912275
 107.9764271  74.0813923  54.9988794  97.4691010  44.4119787   3.5131136
  98.3733177  44.6951675   3.3773172  96.9415665  45.0691652   3.0591941
   8.1651115  89.2393875  72.1810722   7.6430351  88.6443615  72.7192307
   9.0229905  89.2557049  72.6053476  97.3716450  87.5181770  87.2836399
  97.4333763  88.1534481  86.5703011  98.2193756  87.0736790  87.2825432
  96.6283703  45.4343700  24.4817376  96.7566490  44.4985867  24.6369338
  95.9906006  45.4737377  23.7690496  93.2462978  91.6251469  86.6367531
  93.0600262  91.0128880  87.3485661  92.5271702  92.2560501  86.6691589
 110.5644798  91.9938755  53.4797001 110.7662106  92.6842880  52.8481436
 110.2690220  92.4623013  54.2604113  53.2483339  53.5987854  18.6881781
  52.7354145  53.1700611  18.0030918  52.6966143  54.3235731  18.9823186
  25.8685613 104.6576214  71.7572594  26.7842960 104.9050045  71.6289425
  25.3839827 105.4782391  71.6677666  19.5064044  90.4050636  62.5760698
  20.3582907  90.1323605  62.9168844  18.9060199  90.2909756  63.3127880
  17.1698773  93.1334877  41.4226961  16.4852679  93.4327602  40.8243847
  17.5199282  93.9370918  41.8072939  94.6419334  64.5956659  66.5750265
  95.0184631  64.5849705  65.6950617  94.6483135  63.6786652  66.8494415
  19.8444641  76.8100166  15.5867612  19.1079402  76.8874311  16.1932027
  19.9382067  77.6852989  15.2108324  72.2861195 100.3208923  29.0801525
  73.1563997 100.4152489  28.6929321  71.9910860 101.2193871  29.2280817
  11.8612695  89.9974632  70.1339340  12.5089598  89.3879890  70.4878712
  11.3445652  89.4705200  69.5243597  43.2615757  31.4580989  34.5853591
  43.2788801  32.3079109  35.0255322  42.3339891  31.2964654  34.4130397
  10.3190994  24.8235154  44.0401363  10.3479910  23.8935900  43.8151026
  10.9377563  25.2352619  43.4368467  11.9419408  13.5143971  54.6641111
  12.8735638  13.3014858  54.6095371  11.5425944  13.0288112  53.9423370
 105.3742790  92.6571083  61.5072823 105.4897499  91.7137241  61.6209698
 104.5134735  92.7454567  61.0980892  60.7985926   8.8716453  92.2312450
  61.6635370   9.0834749  92.5822926  60.5865335   8.0204451  92.6142883
  76.8652725  22.6414347  19.8748326  76.6786289  23.4029174  19.3257046
  77.1401930  23.0123973  20.7133055  19.8901093 107.1221256  42.6749325
  20.5465078 107.2721100  41.9945812  20.3618169 106.6539574  43.3638000
  44.4177818   9.3542510  39.7875118  44.3421268   9.2791313  40.7387543
  45.0738478   8.7000543  39.5470190 112.3639107  76.1504507  37.2345948
 113.0219746  76.6063166  37.7593565 112.6656532  75.2424383  37.2081208
  84.9409676  98.9163113  84.7874928  83.9849281  98.8745880  84.8095894
  85.1596928  98.9056587  83.8556767  71.8111229  46.9631195  19.0925109
  72.2382879  46.6613579  19.8941982  72.4669075  46.8318653  18.4077108
  47.4967861   6.9598907  60.5787992  47.4517775   7.8881061  60.3494072
  47.6784515   6.5168756  59.7499657  24.1349101  93.0699158  11.5581632
  23.5549426  92.3085976  11.5417171  25.0148344  92.7025318  11.4745009
  37.9245138   3.2451788  71.9899559  37.8677368   4.0521058  71.4782143
  38.6537719   2.7642298  71.5986681   6.2683040  16.5712464  71.1307383
   6.2600821  16.0701883  70.3151989   7.1785057  16.8498254  71.2315226
  20.0639105 105.3433800  48.5346413  20.6121922 104.7023582  48.0821943
  19.5255709 105.7285786  47.8432322  82.1702099   5.3861326  50.0980139
  82.6988029   5.3057081  49.3040657  82.3286057   6.2799573  50.4016876
  18.5584712  26.2485075  48.7471342  18.2366788  26.2463427  49.6486187
  19.4099522  26.6828394  48.7978029  33.7253356  20.4483128  52.6196814
  34.5240927  20.4629707  52.0924187  33.9760566  19.9896789  53.4215689
   4.8209679  79.7684574  83.1302261   5.7112181  79.8404789  82.7859879
   4.5803395  80.6655598  83.3616066  43.7482500  25.0042748  61.8443871
  43.7309313  24.0569162  61.7085886  44.6566153  25.1962900  62.0772648
  37.6989245  21.0361624  79.2029667  36.8506336  21.4307761  79.0007019
  38.2426167  21.2329459  78.4401417  95.9705162  79.6423578  58.1334305
  95.6798649  79.8532724  57.2461462  96.9151306  79.7964001  58.1190062
  32.5191188  93.9543152  66.0386705  32.1618938  93.1791115  66.4719009
  32.3986959  94.6604061  66.6736221  42.5573301  39.0910006  73.7113523
  42.5897837  38.4388661  73.0114222  42.9196310  38.6412787  74.4747114
  60.1588535  32.1391678  26.8059444  61.0271549  32.5405836  26.7720270
  60.2700710  31.2911510  26.3761425  10.9511733  74.8102760  53.5456133
  11.4512634  75.0784826  52.7747631  10.1566720  75.3431320  53.5129881
  29.9384975  96.2255478  34.0984273  29.5008039  95.6923676  34.7620368
  30.4476166  95.5984116  33.5848784  43.3119869  21.1196899  90.8172703
  42.8221989  21.6981077  90.2326584  44.2284250  21.3581324  90.6775570
  47.3528385  38.4532166  60.5427074  47.2523260  38.3603406  61.4900732
  47.3749304  37.5541639  60.2149153  81.8067932 106.8271255  53.4605169
  82.1150684 107.0542431  54.3377924  80.8548546 106.9134808  53.5113382
  67.7198648  13.3767784  66.7944384  68.3124113  12.9310668  66.1890793
  68.1534004  14.2086077  66.9850636  36.8443346 101.7420387  35.4302263
  37.0698190 102.3126698  34.6955371  37.5609612 101.8598938  36.0537553
  40.9159517   7.6767325  50.2883959  40.3198147   8.3971208  50.0837088
  41.5941668   8.0747819  50.8341217   1.3849378  54.2856407  60.0101089
   2.3151073  54.5038939  59.9519682   0.9841031  55.0525141  60.4193354
  18.4179497  87.7237892  39.3616128  18.5765815  88.2641506  40.1356125
  19.1693163  87.1319199  39.3246317 109.9699306  78.9014959   5.3871155
 109.4477654  79.0636730   4.6014512 110.8525372  79.1871881   5.1512903
  35.8844376   5.0973737  87.2052956  35.7353258   4.1734397  87.4061489
  35.1116776   5.3617001  86.7060852 110.9173489  78.8841772  62.9243422
 111.3679123  78.2538128  63.4863615 110.0201893  78.9036083  63.2574511
   5.8691239  89.6469212  78.2046413   6.1212629  89.1285324  77.4404907
   5.8782411  90.5521297  77.8935862  64.1911507   8.8962108  54.0475321
  63.9950848   8.9043701  53.1106615  64.4947243   8.0051422  54.2209482
 109.8421860  70.7798147  90.5416965 110.6684017  70.8037043  90.0589561
 109.2648506  70.2400064  90.0017643  61.9618034   1.6223522  59.7330141
  61.2601137   1.4907588  60.3706217  62.7607822   1.3852173  60.2037907
 113.6145592  93.1020641  67.6062155 113.0219078  92.7590179  68.2750368
 113.0529785  93.6249924  67.0340252  30.6380749  17.4151671  55.9225893
  31.3852429  16.9010913  56.2286949  30.9776735  18.3064175  55.8414841
  47.4201965   7.2580475  68.8958454  47.2115469   8.1897610  68.9637089
  46.5765810   6.8346375  68.7368917  39.5478749  25.6004333  62.1667814
  39.5560122  24.7261333  62.5563526  38.6463237  25.7215023  61.8688250
  56.4253807 106.0906887  90.5388355  55.9260798 106.9061565  90.4948807
  55.7747269 105.4228306  90.7552910  39.6906352 106.0416412  63.7418985
  39.6146607 106.6736794  64.4567299  40.5921650 106.1353207  63.4341621
  39.7184157  25.6090546  83.0245304  40.5259562  25.8925056  82.5958443
  39.0616870  25.6181431  82.3282146  35.4296446  36.3175702  90.6239128
  34.7225785  36.6419291  90.0661659  35.2294040  35.3899956  90.7493782
  15.4066610  95.0203419  43.0437422  15.7613873  95.3697205  43.8612604
  15.8168054  95.5491352  42.3593521  19.7903216   3.5845679  53.4152651
  18.9728761   3.5147494  52.9221725  20.3258204   2.8585708  53.0952597
  38.4765553  15.6731486  73.8743210  38.2000208  15.7695043  74.7856283
  39.0854573  16.3976514  73.7309122  22.3999095  99.5485020  37.0479321
  21.6325092 100.0494289  36.7715335  22.9449344  99.4926929  36.2630343
  35.2647543 100.0933933  46.8896389  34.3106222 100.1317596  46.8233538
  35.4999542 100.8628368  47.4081564  25.0131321   2.2085080  74.6030378
  25.3311896   2.6619652  73.8223696  25.2154279   1.2866080  74.4436407
  90.5157471 106.0201454  70.5319118  90.8558941 106.9142437  70.5653667
  90.1193905 105.9469986  69.6637058  49.3459988  30.3297353  63.8445711
  49.2595863  29.5448303  64.3855810  49.9877262  30.8694100  64.3062782
  56.7271614   8.4140068  55.8985758  55.7781935   8.3925778  56.0219765
  57.0815897   8.5084730  56.7827082  63.0284023  21.5105820  86.4385891
  62.8672600  21.7481828  85.5254555  63.9801168  21.5515637  86.5323734
  76.5533161  64.8898077   5.6855500  76.6044283  65.6450987   6.2713444
  76.7813921  65.2390337   4.8240083 108.3450508 105.4474354  67.7731609
 108.2460690 104.4999981  67.6793575 109.0529156 105.6751347  67.1704149
  43.9022446  18.9907312  88.3885670  43.8812256  19.4651163  89.2196846
  43.4478569  18.1681859  88.5707188  60.7553530  10.2191114  78.6664772
  61.2870932  11.0050476  78.7921238  59.9711990  10.5302429  78.2142210
  21.7536545 104.3097305  42.0539665  21.3597107 104.8084068  42.7697563
  22.6939058 104.3387508  42.2309399  41.7776823  42.7193213   9.2042750
  42.6957512  42.9217529   9.0242833  41.5771532  43.2067060  10.0033212
  60.1155186  36.8466067  73.9391756  59.8527765  36.0025573  74.3062973
  60.2694416  36.6669011  73.0116844  71.5708065  60.4229879   2.5644928
  71.7112923  60.6423092   3.4855759  72.0802402  61.0746098   2.0827302
  39.8231864  10.1879621  50.0214720  40.2479267  10.3073740  49.1720200
  38.9068151  10.4161954  49.8652506  45.6091976  23.4627867  82.6938820
  45.0665760  24.0423536  82.1591854  45.9982014  24.0386772  83.3520985
  75.6206656  90.5634403  10.7200432  74.6850538  90.6187248  10.9144914
  76.0059595  90.1748466  11.5053892  36.1118317  40.0705814  73.9959955
  35.3140807  40.1653528  73.4755659  35.8130789  39.7020841  74.8273706
  31.9607973  77.4590921  59.5202351  31.5464520  77.0418453  60.2755213
  32.0786691  76.7491198  58.8891459  26.0333633 103.8834095  81.1568642
  25.7214642 103.1833363  81.7303181  25.6117392 103.7094021  80.3153324
  45.1281977   8.3335567  61.7939997  45.0990582   7.4948353  62.2543573
  45.0634146   8.1007791  60.8678007  82.7940655  19.5934319   6.6723937
  83.6833286  19.4415069   6.3524479  82.5888062  20.4861259   6.3945478
  66.2377691  23.4896278  61.8066788  66.6714859  24.3354917  61.9190931
  66.9470835  22.8831887  61.5937471  26.3916445  87.4241924  78.5034847
  26.1617208  86.8404865  79.2264271  26.9947290  88.0587864  78.8905478
  66.7094898  30.0284195  75.1814270  66.3230371  30.8756208  74.9597597
  67.2698545  29.8179841  74.4344759  38.1680608 104.4071102  58.0966091
  38.1391907 103.9620495  57.2496605  38.7758875 105.1346207  57.9642868
  61.7283487  31.0796738  91.4151764  61.1944199  31.7766595  91.0339165
  61.1444044  30.3219914  91.4491558  14.4967473 103.9402485  90.2849197
  15.1290953 104.1069698  90.9838963  13.6724257 104.2948151  90.6180954
  54.4424725   8.3386034  58.7991238  54.7797918   7.4430335  58.7790442
  53.4950209   8.2398409  58.7052631  41.6187048  26.9146013  55.8587646
  41.3033772  26.2900162  56.5119839  42.4506807  26.5482140  55.5590820
  78.1230831  53.9692545   5.8094209  77.9990864  53.4919405   6.6298038
  78.0025244  53.3085871   5.1273543   2.8528017  93.1354237  77.4603701
   2.1827929  93.2771969  78.1291199   2.4018385  93.2965565  76.6315746
  77.2243690  36.5420985  13.3104098  77.0681524  36.8824434  12.4295056
  76.3496685  36.3729477  13.6604309  37.1972895  79.3059826  71.3919592
  37.7315497  78.9502621  70.6818485  36.3046885  79.2998362  71.0463333
  78.3254385  39.7367501  84.0246487  78.6507988  39.6174431  83.1323814
  77.3741007  39.7813725  83.9287281  16.7525411 104.1172409  63.2820225
  16.2655067 103.3080769  63.4378433  17.6061523 103.9648628  63.6874342
  37.6134300  97.8189468  76.7819405  37.4189806  97.7727318  75.8458376
  36.9660997  97.2436905  77.1897125  84.9520206  17.9032803  65.3740025
  84.1564369  18.2621062  65.7671070  85.6100559  18.5872245  65.4982519
 103.6119938  87.5984192  66.8804932 103.3803368  86.8294048  66.3597298
 103.3209133  87.3840332  67.7667999  15.0971925  23.2869458  85.9935474
  14.7812939  22.7717376  85.2512550  14.9406111  22.7296305  86.7558575
  61.1069012  20.8182573  19.1138554  60.4168558  21.1502528  19.6881747
  60.6718016  20.6782389  18.2728350  71.6154575  32.3273706  65.3172207
  71.2833261  31.5258741  65.7215977  72.5370312  32.3609495  65.5737543
  35.9316444   0.9400770  46.4135456  36.3549042   0.0833016  46.4684916
  36.4520454   1.5015942  46.9881010  26.2017012  87.5907516  51.1646414
  25.9750509  87.0170307  51.8965578  26.3637829  86.9940948  50.4339075
  39.9373913  91.1908245  87.8305912  40.5601597  91.9071484  87.7070141
  39.2203188  91.3903618  87.2287464 107.2870350  18.4708357  57.7192497
 107.3619366  18.1731677  58.6258984 106.3950253  18.2364464  57.4631166
  42.9505301  20.0933337  73.7229109  43.0208731  19.2212462  74.1111708
  43.8118505  20.2541280  73.3375502  21.0925770 106.1249924  81.8476772
  21.5940332 105.3764629  82.1709061  20.5182624 105.7566357  81.1763382
  16.7642498  71.2867737  74.3178368  16.6941464  70.9662819  75.2170610
  17.6475501  71.0399771  74.0437841  51.2462425   5.4219723  84.6090794
  50.6176281   6.1340845  84.4908810  51.9884396   5.8293259  85.0556660
  34.6225858 107.0102978  59.9549341  35.0969076 107.1223068  59.1310978
  35.2380085 107.3025799  60.6272840  31.9315195   2.9835042  67.4492645
  31.7258883   2.1884531  67.9410410  32.5491214   2.6961675  66.7767811
  52.5746059  30.4323483  53.7394190  52.4626064  30.7782507  54.6248770
  51.7377663  30.0134492  53.5382891  25.3270268  10.9847462  90.0560379
  24.6104145  11.5702689  90.3007126  26.1203051  11.4913654  90.2300453
  42.4157095  84.7565365  81.0323238  42.8498888  84.1881657  81.6684628
  42.7572918  84.4720554  80.1846123   2.8967252  93.7100220  30.8351421
   2.1471691  93.7323475  31.4300346   2.5140280  93.8121223  29.9637341
   4.4203651 102.7808666  88.6342812   3.9972162 102.5545120  87.8060627
   5.2978730 102.4047184  88.5655594  43.5447693  20.0455713  55.5454779
  42.9388857  20.7432556  55.7952309  43.5482121  20.0625587  54.5884371
  33.0936193  15.3220165  81.2041759  32.7134442  14.4836831  81.4666557
  33.5427332  15.1338041  80.3800964 112.2037125  98.0249023  58.0167961
 113.0047512  97.7014732  57.6045465 112.1028519  98.9147472  57.6788139
  35.4922295  11.8402815  32.4927592  35.5030179  11.0620916  31.9355011
  34.5720315  11.9507813  32.7320433  60.1023531   6.4867872  84.6833515
  60.6158686   5.9782040  84.0557575  60.0709534   5.9384620  85.4673004
  36.8068957  15.5937350  60.7340765  36.0212255  15.1282048  61.0208464
  37.2104120  15.0096667  60.0919914  27.3284197  82.9093742  41.5132904
  27.1929312  82.7390194  40.5811644  28.2797360  82.9313087  41.6169548
  77.6087999  96.3635445   6.8460238  77.7984858  96.3999557   7.7835333
  77.3467207  95.4562759   6.6897452  57.2649431   1.1229382  61.2185192
  56.7575407   0.5095422  61.7500496  56.8161106   1.9614726  61.3264275
  29.4425917  82.7289677  55.6607723  30.2422094  82.8588581  55.1508999
  29.6924829  82.9486752  56.5582800  20.9398270  32.0327306  41.5553665
  20.9126949  32.9561615  41.3048220  20.6720901  32.0259237  42.4743319
  25.0645781 105.3576565  54.7005463  24.2406297 105.0444889  55.0737286
  25.5310559 104.5609951  54.4476128  41.6965961  99.9356174  75.5311203
  42.2605038  99.1632748  75.5727291  40.9887362  99.6836758  74.9380827
  58.2905626  13.0010343   6.9755381  58.3927774  13.1991589   7.9064149
  58.1714106  12.0517910   6.9443697   6.1419797 105.0986958  40.8373928
   6.6960490 105.0461483  40.0586224   5.7026321 105.9457684  40.7620478
  48.5935545  22.3175669  63.0569935  48.4249306  23.0705714  62.4906158
  48.7725687  21.5979481  62.4517441  38.4736657  90.2797699  82.3104382
  39.0251303  90.7487679  82.9366589  38.1195807  89.5427608  82.8081131
  86.7679024  93.0287743  69.5738506  87.0812416  93.2901669  68.7079859
  87.4571228  93.3134747  70.1739883  14.4966769  40.2990723   1.8052925
  14.5126188  39.4050550   1.4636588  14.2836416  40.8418036   1.0461553
  42.4400043  19.5148420  64.9387646  41.7791939  19.0693414  64.4085836
  43.0187893  19.9310911  64.3000317  40.3295088  41.6951656  81.7681980
  40.7594681  42.0662212  82.5387001  39.7246289  41.0431957  82.1221542
  48.7602091  28.5630584  75.2926159  49.3728399  28.2292175  75.9479523
  49.1888475  28.3907175  74.4542837  72.1068144  73.2876587   0.4690561
  72.1683264  72.5409603   1.0647838  71.4621687  73.0192566  -0.1856386
  16.1440909  90.5988121  82.1725464  16.2327456  89.6491051  82.0924473
  15.6067407  90.8533192  81.4224052  77.4984980  13.1803441  60.6386662
  77.8661108  12.9287148  59.7914505  78.2548094  13.2273424  61.2234879
  61.1538982  20.2982259  53.9802980  60.8870459  20.4624796  54.8847532
  60.7074976  19.4855082  53.7427044  86.2389183  71.1227131   8.7311661
  86.7779827  71.4208937   9.4637805  85.7823086  70.3518009   9.0679741
  49.3326616  16.9716907  87.7741814  49.9049759  17.7172887  87.5931454
  48.8335037  17.2350681  88.5472965  76.9026375  17.7574956  90.7334900
  76.1814404  18.3627069  90.5607891  77.5137901  17.9007447  90.0108528
  58.5594988  29.0044832  55.0785255  57.9233646  28.5180998  55.6029272
  58.2036114  28.9835286  54.1901922  13.1626391 106.9408798  31.6516590
  13.7400877 106.9922447  30.8899856  13.4549654 106.1599064  32.1216154
  33.2482219  87.7009869  76.9954395  33.1528759  86.8750000  77.4696636
  34.1170835  88.0190563  77.2406816  33.1059647  28.2565522  55.4861403
  32.1772242  28.0290532  55.4423618  33.1475663  29.1566277  55.1630878
  92.4770451  74.3369865   7.9568499  92.5792599  75.0516033   7.3282743
  92.5843525  74.7531366   8.8121474  56.9561768  41.4660263  86.3681030
  56.6379976  40.7426405  86.9082069  57.5855064  41.9228506  86.9262123
  16.5358341  89.4229412  56.4199114  15.6559980  89.3700981  56.7931795
  16.4001811  89.3479538  55.4753447  65.8626747   5.0538552  83.9402962
  65.9428263   5.5118018  84.7770119  66.7595196   4.8052669  83.7164402
  91.4157486  86.1407566  23.6835122  91.1939144  86.6854572  24.4387150
  90.5982971  86.0704994  23.1904984  70.8929348  15.5223203  83.5415840
  71.0401440  16.3250196  83.0413532  71.5691376  14.9197376  83.2319546
  27.0428133  94.5588207  47.5400496  26.2980461  95.0664425  47.2177458
  27.0858741  94.7634411  48.4741306  38.1440902  14.4654787  62.9265165
  37.6883173  14.9567163  62.2430038  38.5574460  15.1371050  63.4689999
  91.4074898  11.3714886  12.1909213  92.0358086  11.0716343  12.8478301
  90.5597401  11.0650873  12.5129128  22.2287560  96.0261059  67.8530741
  22.0661569  95.9470367  68.7930441  21.5973258  95.4303551  67.4498272
  15.6681168 103.2847214  72.1159983  14.8772132 103.7745953  72.3412418
  15.4273784 102.3676491  72.2473335  22.7697778  87.1933174  62.7922964
  22.9530501  87.5156307  61.9098186  21.8284130  87.3252773  62.9047775
  44.5234442  87.1742153  77.8640747  44.3520498  87.2906303  78.7985802
  43.6944866  87.3946285  77.4392509  25.2883720  41.8684292  82.1406555
  24.6125340  41.5107965  82.7164841  25.9335828  41.1656141  82.0632839
  24.4805431   2.2291383  70.4999781  23.5244536   2.2524242  70.4602098
  24.6986485   1.2974322  70.4757738  49.3918514  11.5670681  63.0010080
  49.2649841  11.7749965  62.0753145  48.6623526  10.9866714  63.2182789
  61.2325764  18.3489251  38.9388824  61.8719721  18.3140743  39.6503544
  61.2092209  19.2709386  38.6828017  39.1098857  13.6254227  91.0237026
  39.8523235  13.0391002  91.1694527  38.4242272  13.0598807  90.6683540
  67.5903463  33.1341052  55.2080059  67.2495270  32.8212738  54.3700218
  68.1996822  33.8337588  54.9725723  54.8109818  21.5361452  70.6115580
  55.3333807  21.0764050  69.9543142  54.3896008  22.2468710  70.1282978
  99.4455147  97.7425098  60.2601767  99.0666771  98.5857964  60.5083418
 100.3540802  97.9445553  60.0367737  71.1156940  14.1607213  92.2249508
  70.1626492  14.1878176  92.1400642  71.4390421  14.5881963  91.4318943
  38.5844398   1.0481855  57.7990675  38.7907076   1.3401817  56.9111347
  39.4256902   0.7700013  58.1612062 111.9432545  78.7745428  89.8316193
 111.7634106  79.4221544  89.1500854 112.6398468  79.1674614  90.3575516
  15.3465903  23.7302399  52.1862602  14.6264851  23.4357882  51.6286087
  15.8861566  22.9497886  52.3127270  57.6340961   6.1459976  80.7853317
  58.1226587   6.2153023  79.9651241  57.7301311   7.0058918  81.1947060
  48.8774538   0.5726402  74.6586800  49.7654343   0.5276898  75.0132227
  48.9750433   1.0349761  73.8262415  56.1422491   4.0049326  61.7010307
  56.7042732   4.2231968  62.4444866  55.9838867   4.8429143  61.2663603
  33.5046506  32.0964742  49.0444422  33.6302996  32.8802967  48.5095882
  33.3431578  31.3974714  48.4107637  31.6613531   9.4446832  75.9236717
  32.3108649   8.7441736  75.8632469  30.9315014   9.1418386  75.3834581
  97.5508499  12.6270485  79.5413876  98.4751129  12.4403775  79.7060490
  97.5492382  13.4991181  79.1467667  32.7063394 104.6745682  67.0571756
  33.6463070 104.6155643  66.8862677  32.6440811 104.8470497  67.9966497
 106.7677975  91.8190575  63.9124060 107.0111752  91.1001873  63.3291197
 106.1741829  92.3597717  63.3913755  72.1039534  21.6894460  66.9706869
  71.2172937  21.5089965  67.2829390  72.2909069  22.5759220  67.2796202
   2.3364159  93.5736847  54.2547417   2.1140657  94.0338802  53.4454155
   2.4481897  92.6611042  53.9883947  71.6343069   3.0273804  57.7925634
  72.4558926   2.5642651  57.6289988  71.4430523   2.8573653  58.7149239
  39.3051553 106.5891838  22.3287153  38.6511827 107.0337772  21.7893767
  40.1144552 107.0763779  22.1740842  39.0389013 100.7644463  79.7318935
  39.9638724 100.9409332  79.5601130  38.7416363 101.5186977  80.2407837
 109.8183727  85.9505653  46.6873884 109.3606186  86.1098671  47.5128078
 110.1869678  86.8014145  46.4498425  35.5270839  10.1036847  74.0180159
  34.7412443  10.6356680  73.8927937  35.8012867   9.8690891  73.1314468
  14.3170583  92.5423241  61.7914581  15.2732015  92.5050354  61.7662811
  14.0777397  92.0317459  62.5649357  59.7436619  82.4067783  71.9245243
  60.3249598  82.2004414  72.6564693  60.3344727  82.6049519  71.1979532
  55.1928759   8.7948370  53.3908939  55.7012606   8.5531271  54.1650724
  54.3389034   8.3845711  53.5274506  71.2929392  37.2537971  45.6720591
  71.1251831  38.1634140  45.9184074  71.0540390  37.2084284  44.7462654
  44.7615957   7.6496392  67.6695013  44.1915083   6.8905103  67.7917910
  44.9623489   7.6501119  66.7335892  29.6588206  44.7965813  66.9237661
  29.8426795  43.9959097  67.4150372  28.7607837  44.6852446  66.6117334
  21.5099263  95.0558758  73.2356262  21.8229938  95.8283615  73.7062454
  20.5559421  95.1297665  73.2618093  47.7141666  22.5379157  68.6635113
  47.7202082  23.4791756  68.4896564  47.7979994  22.4694705  69.6145725
  44.3894577   6.2006575  83.5417843  43.7088394   6.5950173  84.0872002
  44.7999477   5.5461740  84.1069221 106.2610912  40.8850050  59.8853016
 106.5936375  40.9662676  60.7791948 107.0466042  40.8595371  59.3389130
 113.7102890  64.3923616  15.6592286 112.9053497  64.6744680  15.2248061
 114.3493366  65.0717354  15.4440522  48.9469481  39.5502543  90.2220154
  48.7309980  39.3482208  89.3116474  48.1791830  39.2673659  90.7187557
  20.6126833  98.2021713  75.3093433  20.1086450  98.6366844  74.6213198
  19.9543667  97.7610970  75.8462811  40.9456873  27.5402236  78.7258530
  40.8593893  27.8643084  79.6223783  40.8357477  28.3177400  78.1784821
  41.3962936  10.1876414  61.4278507  41.2849140   9.2688000  61.6718912
  42.3298454  10.3574550  61.5538597  98.1066418  51.4744282  10.7885885
  99.0072060  51.6331720  11.0714579  97.8225327  50.7206631  11.3056481
  85.1865864  58.7574053   7.7741921  84.3144417  58.3651638   7.8157568
  85.0730419  59.6334314   8.1428605  94.6640587  82.4585819   8.9705575
  95.5949211  82.3818016   9.1798979  94.2646313  82.7922630   9.7738934
  73.9652205   9.3792599  38.2030559  73.6659527   9.2356527  39.1008592
  74.5829058   8.6665386  38.0395913 105.4865932  88.1984329  77.1143818
 105.9249783  88.1531048  76.2646770 104.7046375  87.6563835  77.0096731
  77.5631189  45.5408812   5.9100646  77.2698212  46.4325571   6.0974771
  78.1139517  45.6284523   5.1321536  11.6507530  95.2820110  50.7476616
  12.0239699  96.1603451  50.6737423  10.7995224  95.4177189  51.1638594
  17.5917685  69.3805170  66.3966417  18.1548369  69.5932007  67.1409178
  17.6763690  68.4324408  66.2955284  57.3565531  27.1638560  62.6463604
  58.0882788  27.3571086  62.0603037  56.5989971  27.0869613  62.0663404
  55.6686115  17.1174276  42.7531576  55.7940769  17.2064626  43.6979151
  55.9791374  17.9472947  42.3910475  40.7349920  91.8935394  81.0258389
  41.4341640  92.2891426  80.5053711  41.0927725  91.8482208  81.9125080
  91.4315510  14.6522903  69.7064066  92.2763729  14.3913794  70.0730467
  91.1967850  15.4461205  70.1869774  63.2936239   3.5915321  34.4781232
  62.7831459   3.5039753  33.6731553  63.4888792   2.6909453  34.7370648
  42.9079342   7.1979415  45.7987595  43.5000372   7.3378682  46.5377188
  43.2940197   6.4659500  45.3177595  26.2431645   6.8101442  87.0884228
  26.5515232   5.9047645  87.0505428  25.7877183   6.9430250  86.2570763
  70.4952431  33.0391407  82.4077606  69.8063850  32.4692273  82.7496815
  71.0078382  33.2840300  83.1781578  49.3667555   2.8045541  49.5752478
  50.1127195   2.2550474  49.8156834  49.2803907   3.4222370  50.3013611
  37.4957943  86.3106346  77.3416281  37.5447679  85.6694126  78.0506182
  37.2362113  85.8002472  76.5745878  45.8632231   3.6553186  64.0020990
  45.0975418   3.1515372  63.7261152  46.3584137   3.7995312  63.1957388
  86.3279057   2.1897855  23.7428403  86.8515491   1.6337043  23.1659484
  85.4290104   1.8855968  23.6175442  20.3665805 106.1828995  63.7633705
  20.1502991 107.0176506  64.1788626  19.6468639 106.0260296  63.1521130
   1.8128976  99.8832893  65.1512861   2.3714568 100.2193546  65.8522129
   2.4255002  99.5864487  64.4783545  42.9794455 104.8230839  82.9165077
  42.8230000 104.8773575  81.9737434  42.1878099 105.1878929  83.3120537
  60.0351429   7.6835871  71.0412645  60.6108952   8.3084327  71.4820719
  59.7938299   7.0574665  71.7238903  23.3040953  61.3878155  56.7062235
  23.4412217  61.5564871  55.7740307  22.7287292  62.0959234  56.9956493
  73.3536053  81.9879627   2.7292597  72.8231859  81.1940956   2.6609910
  72.9450846  82.4890041   3.4351641  48.2333708 104.4128895  80.6039429
  48.0686903 104.4833088  79.6636438  49.0562010 104.8829842  80.7388592
  44.9070835  31.8730927  85.3208828  44.5781326  32.5581980  84.7389507
  45.7040834  32.2433734  85.7002544  55.9617519   6.0268259  58.6895037
  56.3937855   5.1735085  58.6517048  56.6730833   6.6488832  58.8420916
  20.9308124 101.6361046  49.0475321  21.1326933 100.7030010  49.1167402
  20.3742838 101.8175697  49.8048782  26.7986321  80.0694561  72.4118900
  26.5588021  80.9929371  72.3350286  27.6822996  80.0203419  72.0472670
  96.4123535  75.6456709  62.8684855  95.6745911  75.9164381  63.4149504
  96.9893646  75.1681709  63.4645462  35.3303385  27.3384333  43.3984232
  34.4635224  27.1148896  43.7373781  35.4097676  26.8311357  42.5906038
  35.7265663  55.2494049  59.7054577  36.4924717  55.3933525  59.1496706
  35.6931520  54.3004274  59.8261213  64.3201971  40.9895611  90.1563168
  64.2614365  40.6917715  89.2485142  63.5644484  40.5915356  90.5883503
  39.4671321  11.4075530  72.6412868  39.7902632  12.2911704  72.4651098
  39.0985060  11.1166000  71.8072033  99.5842934 104.8672104  73.9443111
 100.2630615 104.5708942  74.5506907  98.8850880 105.1957703  74.5094633
  62.5223827  13.2883716  64.4028997  62.1807146  14.0157354  64.9229383
  62.6792908  13.6657298  63.5373306  81.0823822  23.7516546  51.0552120
  80.6899834  24.6243787  51.0305834  80.9139347  23.3886838  50.1856661
   2.0650011  76.6760159  44.6372318   2.1988194  77.4322796  44.0659285
   1.9562487  77.0519972  45.5107546  59.2747498   0.7608111  77.7298117
  59.8439264   1.0062345  77.0004034  58.6343765   0.1634326  77.3434210
  81.7679691  18.9194620  62.5671244  82.1176243  18.0727553  62.8447199
  80.8292007  18.8607490  62.7446318  77.4354267   0.9867633  88.1943989
  76.7807722   1.0067008  87.4963570  78.1327152   1.5651603  87.8853989
 108.4179020  14.8359990  59.1342306 109.1184711  15.4877150  59.1606569
 108.7314796  14.1720259  58.5201979  37.5985479 104.0087700  51.3571596
  38.2107639 104.7439194  51.3884878  37.4317408 103.8755894  50.4240608
  99.7809315  93.4682655  49.2233753 100.6349182  93.6735153  49.6039200
  99.9825764  92.9254913  48.4611654  89.8324299  86.1475754  14.9661958
  90.3167534  86.5777779  14.2615092  89.4706154  85.3591728  14.5615423
  20.5661678  87.8983974  86.9102192  21.4497399  87.5342274  86.8562698
  20.7010603  88.8278389  87.0951080  53.6826992  14.4622445  75.2104616
  54.0859413  15.0680542  74.5886707  54.0298319  13.6038125  74.9679232
  37.5693870  31.0043859  54.7702646  37.3100305  31.9257712  54.7741318
  38.4206986  30.9970331  54.3327141  45.0207376  12.2129202  90.0323296
  44.9966288  12.1581745  90.9876633  45.6392956  12.9198956  89.8484707
 109.3204975   7.0553088  66.9327688 109.7413063   7.6639152  66.3255215
 108.9730263   7.6131958  67.6286507  58.6656094  35.3975749  53.7544775
  58.5321283  34.4608259  53.8990974  58.6569166  35.7790804  54.6323204
 100.1105785  38.4847951  69.5931339 100.6258583  38.2587314  70.3674841
  99.8946381  37.6417089  69.1946268  76.7744160  33.1905079  71.2807035
  77.1805954  32.3960209  70.9342337  77.5069666  33.7879825  71.4311314
  65.8924484  30.9110737  82.8069115  65.2656174  30.1971197  82.9234695
  66.1919832  31.1138892  83.6931229  81.6514587   9.9601877  38.5104775
  82.1386909   9.9421114  37.6867628  82.3218346  10.0826228  39.1826558
  52.2952652   5.9756786  73.3136845  52.1585989   6.4681435  72.5043440
  51.8316555   6.4800924  73.9821625  31.4749169  40.1473713  71.7965889
  31.9103026  39.8369217  72.5904989  31.7891264  41.0447979  71.6864252
 107.9189682  52.8052950  47.5185394 107.3219776  53.2455015  48.1235600
 108.0520821  53.4366989  46.8115520  60.9516621  17.5306785  69.0151644
  60.7419395  18.1784821  69.6879196  60.4952335  17.8411281  68.2331657
  75.7900143  11.9232380  55.5018568  75.4008722  11.0819316  55.2631044
  75.4476881  12.5381947  54.8531151  49.4461775  14.8498571  36.6890383
  50.2824450  14.5867777  36.3047552  49.6680737  15.5768526  37.2708225
  80.2077103  26.6268420  71.3618755  79.8030615  26.8281245  72.2056675
  80.6531811  27.4360037  71.1107826  53.3726263   8.8814604  28.0057955
  53.7510538   9.4954944  27.3765230  53.2263899   9.4053853  28.7934184
  50.1936197  32.5217628  47.9132032  49.8716164  31.7888856  48.4380198
  51.1441803  32.4952388  48.0225420  57.0174122   0.4709607  56.7932558
  57.4947929   0.4562115  55.9637260  56.3944864   1.1915065  56.6983366
  34.9599624  16.8548572  72.9356003  35.6914186  16.2414861  73.0061483
  34.1792417  16.3031483  72.9838085  32.0861387  38.1354451  88.5789490
  32.1330214  38.6272502  89.3988037  32.9762435  38.1686926  88.2284641
  85.0465107   9.5313048  58.0877733  85.4666328   8.7928009  58.5286188
  84.2113113   9.1814208  57.7775335  73.7057447  26.9881082  82.9977417
  73.6089468  27.9274750  82.8413677  74.0335703  26.6398144  82.1686077
  54.8603725  28.9537787  54.0322590  53.9727545  29.2922068  53.9146662
  54.9803352  28.3393693  53.3081484  33.3945704  17.3724043  50.3354883
  33.9782834  17.0517707  51.0230255  32.5156188  17.2696412  50.7003355
  70.7521629  38.0306983  78.0683661  70.9933901  38.6025405  77.3396397
  69.7992706  38.1024456  78.1238413  63.7856293  14.1825449   1.5618573
  62.9603624  14.3941355   1.9982015  63.5228825  13.8095343   0.7203939
  95.4034042  82.0388222  12.5231898  94.7566128  81.4564705  12.1247530
  94.9993038  82.9057980  12.4874163  80.9744263  13.9020014  68.0116844
  80.8985901  14.4397509  67.2234535  81.7596626  13.3741164  67.8668594
  57.2477484  28.5789847  75.5261755  57.5539589  29.3638825  75.0718594
  57.4363947  28.7476397  76.4493227  85.9252104  90.2980824  -0.1136199
  86.6699395  90.8993955  -0.1190463  85.6926140  90.2132221   0.8110055
  61.6621065   2.2727078  40.2926397  62.1686602   1.4917126  40.5155325
  60.7946396   1.9385096  40.0645065 112.8988743  52.9988575  48.3925152
 112.3137760  52.2585154  48.5530949 113.7401772  52.5967407  48.1763172
  59.9310255   3.7306428  74.5388031  59.7037888   4.5070598  74.0271711
  60.2577209   4.0779221  75.3688049  75.0612974  11.2402260  76.8396664
  75.5513763  11.9600105  76.4422226  74.2061949  11.6177619  77.0458221
  58.6181736   1.1880773  54.2918682  59.0271282   0.6663966  53.6013317
  59.3234682   1.3516532  54.9179888  87.1897030  62.1606493   3.2456574
  87.6802444  62.5770664   3.9543131  86.4660454  62.7619839   3.0697179
  45.8218479  93.2994938  52.0165396  45.7174158  93.5631752  51.1023188
  46.0977888  92.3840332  51.9717550  55.4813004   3.9643925  43.6804247
  55.5475426   4.8497969  44.0380573  55.0434732   4.0789071  42.8369617
  15.0222123   4.1996503  78.1835461  14.9589956   5.0666755  77.7829170
  14.6548593   4.3134701  79.0600872  68.6635017  27.8817248  76.3445282
  68.3366060  27.6644492  75.4715061  69.4211388  28.4441066  76.1834812
  44.2423105  30.8240819  64.8261070  44.9258852  30.1585674  64.7483253
  44.5547676  31.4088154  65.5165339  45.9886408 104.1901302  71.5068340
  46.3072205 104.0858841  72.4034262  45.6602335 105.0885582  71.4722776
  32.1327019  18.7293053  73.3425188  32.0642543  19.0446484  74.2436886
  33.0719209  18.6107659  73.2009363   1.7885350  79.0315580   8.3509862
   1.9992477  79.6861410   7.6851344   2.3809743  78.3027601   8.1663197
  33.3511925   6.9334596  75.9187269  34.1282558   6.4227992  76.1459541
  32.6507759   6.5521598  76.4481211  68.2034922  15.5334556  87.8093433
  68.1064749  14.8683965  88.4908962  68.8977623  15.1965427  87.2430229
  29.5670485  16.3575590  68.3096504  29.1815495  16.4953542  69.1748857
  28.8171577  16.3260043  67.7155972  87.2972107  64.6207142   1.5951991
  88.0898094  65.1320410   1.4322205  86.6954899  65.2377892   2.0116016
  58.6811590  12.5578320  62.0059252  57.9562569  12.7465475  61.4099932
  59.0098810  13.4191215  62.2635126  59.7429323  33.6441445  70.6270266
  59.4135523  34.5389748  70.7108068  59.9920607  33.5658574  69.7061396
  54.8278570  13.5180473  83.9407730  55.4799080  14.1027987  84.3269348
  54.0090179  13.7496018  84.3790817  34.8351932  26.2330461  78.4782505
  34.8424482  26.1913538  79.4345140  34.4630027  27.0920682  78.2787800
  37.2993493  10.5996251  27.7787042  37.9322290  10.8150995  27.0936775
  37.7474022   9.9529058  28.3238983  45.0367308  26.1668611  57.8213930
  45.7439756  26.7663050  57.5832701  44.2477083  26.7085123  57.8042507
  93.1141281  85.0659180   4.3974167  92.2107315  84.8039722   4.5748466
  93.2474995  85.8459377   4.9359369  40.2866173  98.8883018  23.0321288
  40.0595427  99.2257881  23.8985991  40.1989508  99.6434021  22.4504447
  42.2270489  85.1417542  64.4647551  41.8232679  85.9038353  64.0495110
  41.6536522  84.4110489  64.2334080  63.5223818 106.8621826   0.2620921
  63.7446260 106.1850166   0.9010679  64.2863512 107.4387264   0.2485760
  58.2841110   7.5284094  65.7512569  57.3663807   7.7700269  65.8762598
  58.4939671   6.9840533  66.5101194  73.9488506  33.4873962  82.5567150
  74.3540955  34.0679598  81.9125462  73.6389542  32.7405024  82.0445156
  63.1779099  23.1014681  36.4322400  63.3647633  23.4374380  37.3088479
  64.0307331  23.0770707  35.9982729  26.8871665  96.9817352  84.3751621
  27.6721597  96.5495205  84.0386963  26.1963940  96.3247585  84.2888737
  38.2244301  80.3148079  77.3975039  37.4468684  79.7776127  77.5493288
  37.9485583  80.9556961  76.7422199   1.8756123  87.9362297  67.0189953
   1.6548860  88.8571453  66.8796253   2.5531396  87.7512455  66.3686371
  39.5665622  99.1237736  55.6024456  39.4988012  98.7605190  56.4854431
  39.0937471  99.9547768  55.6483841 110.1668358  92.0270729  89.6509933
 109.5541573  92.5913906  89.1794014 109.6372986  91.2809372  89.9322605
  47.7044535  12.5768793  51.2349939  48.2735062  12.1581590  51.8808126
  48.2577658  13.2401490  50.8224964  44.7265911 107.2061920  66.5169477
  44.5012331 106.4117050  67.0009232  45.6825876 107.2426414  66.5482330
  80.0648499  54.2458057  60.6469774  79.6587515  54.1820526  59.7825432
  80.9417057  54.5889759  60.4749441  53.8086271   2.3633111  61.3331127
  54.6834946   2.7477801  61.2780905  53.6641979   2.2297205  62.2698784
  47.4350977  19.7965181  75.1026535  47.5135136  19.1085720  74.4417381
  46.8130112  19.4462824  75.7402849  73.3552122  22.7808046  84.5235920
  72.7958155  22.3535061  83.8749599  72.7930021  23.4429669  84.9256992
  47.6987362  25.1863146  35.2084613  47.6945543  24.4330883  34.6178126
  46.8928432  25.6587839  34.9997997  78.8637543   5.9247375  77.5617695
  79.5617199   5.4087079  77.1582937  79.1674805   6.0806227  78.4560204
 112.6619530  96.2765503  10.4299414 112.0066643  95.9272289   9.8259461
 112.4439144  95.8819103  11.2743068  32.4159193  45.6129742  71.3736773
  32.6266956  45.1190996  70.5812788  33.2288170  45.6132221  71.8790722
  38.8750315  19.3244159  74.4213057  39.1517901  20.1276612  74.8622513
  37.9268551  19.2954814  74.5492029  90.1547909  44.4945478  80.5017853
  89.4871521  43.8088655  80.4837036  90.9834671  44.0244675  80.4092693
  30.3235793 104.5162010  66.1611986  30.2068758 105.2688217  65.5814028
  31.2356758 104.5724583  66.4460611  30.7217097  50.6555796  78.9895630
  31.2776947  50.4622316  78.2347584  31.3366199  50.8097506  79.7067451
  60.8229303  29.5369792  79.5302534  60.1925373  28.9782572  79.9848557
  61.6613531  29.3419361  79.9488640  76.4458609  28.5887718  68.6620951
  77.1334600  28.0825973  69.0947914  76.9127512  29.2974091  68.2192898
  68.1933737  28.8634181  78.7689590  67.4285173  29.4297767  78.8712835
  68.3528852  28.8445282  77.8253317  74.0965414  35.7709241  43.3529902
  73.9348221  36.5522981  43.8816977  74.7006655  35.2467465  43.8788271
  77.3141384  30.5921412  78.9092302  77.1639109  29.9737406  79.6242428
  77.6830244  30.0590134  78.2050037  88.3657360  21.6986823  42.8359842
  88.7201500  20.9296417  42.3896646  89.0993977  22.3122358  42.8750372
  98.7823391  56.4235973   6.8699712  98.9890194  57.1788883   6.3194680
  99.0285206  55.6659317   6.3393354  32.4939275  94.8579502  46.7594242
  32.2746420  95.5706024  46.1591911  31.9349027  94.1316700  46.4833069
  52.5475979  73.9176893   3.0589855  52.1765327  73.2050800   3.5793096
  51.7904902  74.3297386   2.6427716  80.6656075  82.6554489   1.4871925
  81.1511230  83.1112957   2.1747354  81.2165642  82.7394772   0.7089753
  66.7677736  26.0595918  80.1069546  67.7103615  25.8939171  80.0893974
  66.6506577  26.8351984  79.5583677  86.5589905  71.4316845   5.9226573
  87.3090553  71.9020844   5.5588400  86.7830753  71.2994576   6.8438172
  55.4039812  62.4106359   6.5095490  55.3228426  63.0196333   7.2435617
  55.2750683  62.9540062   5.7321393  93.1303406  73.2386494  60.5548096
  93.2306194  72.7456188  61.3691187  94.0191269  73.5146475  60.3309298
  15.7106471  25.6264234  84.8919010  15.0958633  25.4748988  84.1740513
  15.5646026  24.8942327  85.4909039  44.9955988  21.8356490  46.9659090
  45.1554728  22.7784872  46.9243288  44.0504360  21.7584991  47.0960951
  47.5431633  13.1710351  43.4556055  47.1517420  13.1574976  44.3290138
  48.3373642  12.6435769  43.5408640  76.6170740  11.5884757  21.5332437
  77.3244381  11.1466873  22.0030189  76.8895197  11.5681469  20.6158614
  65.2892494  11.1782610  50.7359171  64.5890951  10.8924723  51.3227224
  65.5343866  10.3888488  50.2532482  27.3079133  28.0117702  53.4091949
  26.7991662  27.9555202  52.6003408  28.0284214  28.6055398  53.1981611
  72.0275927  67.4061108  14.2568421  71.8142509  68.2856941  13.9453197
  72.3763514  67.5420666  15.1378167  63.7767887  19.2766249  54.6906424
  62.8827572  19.5839763  54.5407248  64.2437696  19.4957614  53.8843250
  91.6567421  85.2073956  16.8499029  90.8638668  85.5087280  16.4063096
  91.9664860  85.9732628  17.3333585  58.7320089 101.6679478  89.1660786
  58.4132147 102.5406837  88.9359951  59.5963335 101.8215656  89.5476246
  95.7758808  65.7868910  29.1469932  95.6119442  65.7445669  30.0890994
  96.6592598  66.1481094  29.0735865  14.5101881  44.1552305  38.5242844
  13.9810681  44.1719055  37.7267957  13.8899863  43.9327478  39.2186046
  55.7696486  18.2396209  62.6655245  54.9281597  17.8020287  62.5365257
  56.3650465  17.7968597  62.0607948  33.6753249  28.6647701  75.4266453
  33.7302876  28.7931657  76.3736010  34.3091440  27.9717302  75.2417183
  62.6101446  31.4435220  51.9776249  62.6312780  31.3619804  52.9311085
  61.6784954  31.4796710  51.7609215  40.4192734  14.0908980  38.1709671
  40.0104570  13.6160326  38.8945699  39.8598957  13.9057672  37.4166083
  53.6234951  46.6185904  89.9019432  52.7543736  46.6978407  89.5087719
  53.9776325  45.8069229  89.5386028  89.3284893   8.4140068  58.5488319
  89.1926670   8.2956469  57.6087379  90.2770138   8.3549911  58.6630917
  52.8747654  21.6468120  31.6947603  52.7981710  22.0628095  32.5534272
  53.1839705  22.3447251  31.1172271 100.1218224  15.6538689  55.1106691
  99.2498684  15.7752085  55.4864550 100.1979256  14.7083473  54.9824905
  77.5359917   1.6938351  62.1106243  78.0719995   1.4448583  61.3576698
  78.0395699   1.4013647  62.8702974  41.9112158  12.3770106  67.6717234
  42.4877930  11.8589318  68.2333136  42.1801615  13.2830715  67.8232193
  72.5362778  27.6143980  65.2098131  72.3191500  27.2894120  64.3360472
  73.2344055  28.2522416  65.0614738  62.7544689  26.1995125  66.9207573
  62.1455526  25.6658149  67.4312687  63.1422329  25.5879116  66.2948084
  71.9582987  26.4912677  54.0350866  72.7532768  26.2569737  54.5139933
  71.4365816  25.6887603  54.0298033 104.6159554  34.0167856  65.4803085
 104.9195671  34.2726803  64.6093464 103.9725685  33.3272219  65.3166533
  75.2654886   8.4109020  77.2702742  75.9320545   8.1692904  77.9133511
  75.2993155   9.3669558  77.2379065  11.3835514  50.0475407  89.8037243
  11.0666418  49.2762852  90.2737904  12.0244801  49.7025633  89.1820812
  54.4073963  40.4990196  87.7969074  54.1507673  39.5790243  87.8600025
  53.5938454  40.9845209  87.9334927  66.5230942  15.3316641  51.3996077
  66.2008142  16.1536479  51.0298634  67.4087906  15.5352116  51.7001724
  66.5463734  93.1699562  47.8862429  66.7131710  92.3916721  48.4179258
  67.3316956  93.7065029  47.9940653  40.8665085  13.4105182  71.7185402
  41.1404324  14.1107690  71.1262178  41.5996981  12.7951634  71.7171860
   4.2037153   4.1339144  20.4266071   3.9252973   4.4911304  19.5833337
   3.7265459   4.6514240  21.0752416  39.3744349   3.4635139  60.5084229
  38.7984490   2.7018273  60.4427862  40.2496767   3.1177306  60.3334379
  71.9985390  42.1079111  73.8620853  71.5144730  41.3014984  73.6842823
  71.5453196  42.7772856  73.3494806  26.3988233  34.8970819  42.6135254
  26.9262266  35.6459832  42.8914165  26.4355922  34.2906022  43.3531570
 100.3069115  99.3937588  14.8744190 100.7450771 100.0455570  15.4216027
  99.9802303  99.8910809  14.1246319  67.8651905  34.8699927  64.6732140
  67.0337915  35.3428864  64.6360207  68.2516575  35.1304030  65.5093098
  73.5928822  33.9669108  73.9048958  73.5404348  33.1904840  73.3475447
  73.3988142  34.6971369  73.3172417  84.0873432  75.5382299   3.2814476
  83.6194229  76.3160801   3.5851473  84.8012352  75.4277468   3.9094502
  18.0512750  41.6319752  12.4705851  17.7846169  40.7976103  12.0846248
  17.6114011  42.2940302  11.9372702  46.2134123  12.8607857  84.5372105
  45.7803583  12.3251128  83.8725662  47.1120882  12.9543364  84.2212105
  61.2589693  12.2686350  72.5817204  61.4596891  11.9270301  73.4530687
  61.4204216  11.5317416  71.9925213 106.4131546   9.1715580  48.5812187
 105.4854298   9.0293956  48.7692404 106.7926311   9.4218814  49.4235754
  82.0608139  19.8945391  59.1072226  81.2597370  19.6614015  59.5764160
  81.7584610  20.4047608  58.3558941  86.9286728  42.6317406  70.9530926
  86.1810493  42.5443602  71.5444088  87.6863766  42.7020359  71.5337610
  72.8971195  15.1022232  61.6543245  72.5510168  14.2865062  61.2923145
  73.1125689  14.8889351  62.5622463  42.4767876  94.0135002  74.0338373
  43.3895874  94.2948151  73.9714622  42.0786572  94.3088150  73.2149887
  10.0333691  93.2585812  16.7494988  10.7858193  92.8159618  16.3568962
   9.2723888  92.8114414  16.3790798  79.1422081  14.7241306  56.9402552
  79.8965931  15.0468683  57.4331808  78.6343765  15.5098712  56.7378950
  53.0424926   0.3806374  52.2394562  53.9273963   0.4466603  51.8805456
  53.1444106  -0.1451614  53.0327892  37.1988750   4.1487098  78.8854694
  36.3598585   4.5955220  78.9978981  37.6463628   4.6478239  78.2021856
  61.3050413  33.6886072  77.2923326  60.7038164  33.7982368  76.5556240
  61.6406965  32.7972770  77.1969604  77.4208117  24.8873949  44.4370937
  77.1052742  25.6038618  44.9878597  76.8696880  24.1418099  44.6749926
  36.9387841  30.5258751  74.2436695  36.5968704  31.3308883  74.6326208
  37.6554847  30.8176970  73.6802769  17.3712718 100.9346008  80.3874302
  17.6053286 100.1535511  79.8860121  17.0172668 101.5401745  79.7361231
  66.0188484  23.0160236  82.2363091  65.2777815  22.4112558  82.2000694
  66.5157604  22.8340077  81.4387035  45.2026701  28.1095815  62.8963900
  45.2566481  27.8677559  63.8209629  45.6240368  27.3849177  62.4342823
  87.7285004  29.9247575  59.8702860  88.1901455  30.5428433  59.3036413
  86.8323898  29.9147940  59.5339537   3.5741428  78.0049372   2.3311485
   2.9136205  78.6692190   2.1344888   3.8212898  77.6524591   1.4762169
  55.9356260  23.6660695  69.1139126  56.5791702  23.5503817  68.4148407
  55.0892687  23.6349130  68.6678886  87.3056602  45.6743097  58.1155348
  87.2801113  46.5510750  58.4987593  86.4719009  45.5907726  57.6528263
  51.3352156  38.5008740  76.2073851  52.1670532  38.0666399  76.3963890
  51.5492392  39.1451001  75.5325508  95.3715897  11.2163389  79.2967463
  95.6015778  10.6836724  80.0580692  96.1280823  11.7883432  79.1672945
  92.4789715  46.2745047  81.7553043  92.2087860  45.4602623  82.1798611
  91.6727448  46.7852068  81.6816902  75.5376434  42.9305363  76.0148764
  75.5644941  43.2847309  75.1260281  74.6055555  42.8918409  76.2292337
  24.8109412   0.7729243  67.1793652  24.8766327   0.2765453  66.3635683
  24.9689603   0.1258770  67.8668213  56.6016245  10.1249290  61.2948275
  56.7097759  10.9429801  60.8097219  56.8552160  10.3429949  62.1916914
  68.3939314   0.4054874  18.3695889  67.7661180   1.0571223  18.6817682
  68.0649757  -0.4264098  18.7101257  94.0790176  58.0560255   4.2917001
  93.9887333  57.1588755   3.9704546  93.4548092  58.5609961   3.7705415
  43.4164524  37.8902364  65.6661510  44.1881704  37.3269057  65.6083059
  43.2230234  38.1254172  64.7586823  38.3960629 103.0965137  81.6973209
  38.8027740 103.5916710  82.4084091  37.4831295 103.3842468  81.6967201
  45.4806089 100.8758068  63.5625648  45.3779507 101.8070316  63.3662987
  45.7273579 100.4805946  62.7264166  84.9951363  60.8433819  49.8879719
  85.9475613  60.7803249  49.9595976  84.7539043  60.1446724  49.2798233
  60.2579784  10.0103378  52.7035618  59.6277189   9.6930051  53.3503294
  60.2993917   9.3141985  52.0478916  21.9688082  91.1155701  58.3118057
  21.1304045  91.4709187  58.0167818  21.8353271  90.1678371  58.3266878
  75.3229618  36.4784884  83.2785606  75.7645941  36.4600801  82.4295330
  74.9039555  37.3384571  83.3119869  95.5111122  33.5440493  33.1455588
  95.7065678  34.4747424  33.2543659  94.8419094  33.3611560  33.8050604
  96.2737465 100.0050640   8.0846047  96.6323471 100.2726269   8.9308029
  95.6319714 100.6824970   7.8714514 107.4193192  96.2836552  19.4036949
 107.4987507  95.4738903  19.9078751 107.4815464  96.0041904  18.4903181
  60.4224300  20.8935761  56.4810610  61.0163307  20.6911850  57.2039413
  59.5830297  21.0742688  56.9041300  38.1968021  13.4666622  59.1665459
  38.8278532  13.1500816  59.8129082  38.7182117  13.9933240  58.5607481
  18.9449430  91.9314671  89.8730087  19.4089651  91.1085701  90.0271606
  19.0720117  92.1070766  88.9406776  31.8952179 105.1810360  81.2960529
  31.0558963 104.9673271  81.7036057  31.9982457 104.5283890  80.6034660
 113.0574894  52.6939678  59.1736650 113.7983799  53.1683922  59.5507956
 113.3848476  52.3649645  58.3365154  65.2222443  26.5319419  64.3567705
  64.5721722  25.9537983  64.7560024  64.8512793  26.7562985  63.5033751
  38.0924320   7.9194337  74.8293400  37.4354243   8.1534266  75.4849434
  38.0112553   6.9701523  74.7371054   6.5265238   8.5418880  56.5902376
   7.3187745   8.0210912  56.7219257   6.4524853   9.0703976  57.3848581
  62.9651499  76.1317635  61.4657402  63.4342909  75.9639740  62.2830486
  63.0905247  75.3353453  60.9497643  95.6803608  62.7661896  10.9020317
  94.8846436  62.8494596  11.4275074  95.8734322  63.6592007  10.6165838
  68.8823128  41.8677378  66.7571211  69.3952131  42.0341253  65.9662437
  69.4001865  42.2530651  67.4639177  86.7540169  32.1474934  67.2033024
  86.6196728  31.7727757  66.3328028  87.1734715  32.9919505  67.0384264
  51.2511396  91.4524651  60.6822777  51.1988115  91.3436222  59.7327280
  50.9773159  90.6061363  61.0358143 108.6996365  56.6344547  75.6103611
 108.6533546  57.5732470  75.4293585 109.5634365  56.5085506  76.0030794
  56.5096331  50.6476593  91.9119358  55.6811810  50.6487703  91.4324474
  56.9764471  51.4168262  91.5852833  49.1826105  25.3270912  75.1072121
  48.2901001  25.5903149  75.3316450  49.1947508  24.3799186  75.2448606
   1.1104020 105.8019352  84.2723560   0.9865899 106.5938759  83.7491608
   0.7552679 106.0253143  85.1327133  51.7906618  17.2256637  91.3928986
  51.7535639  18.1512761  91.6339397  52.5376320  17.1629238  90.7976437
  47.0732450  10.1590896  62.6140785  46.2760782   9.6358657  62.6977205
  47.7439022   9.5321578  62.3431444  22.4695992 106.3967991  69.7827721
  21.6944146 106.2281513  70.3183842  23.1631660 106.5805054  70.4163742
  75.1513243   5.7744646  52.6440144  74.9400520   6.6587043  52.3444891
  74.7630739   5.7181811  53.5171270  46.1234283   7.5043529  74.3050194
  46.9022751   8.0004478  74.0529823  45.6521463   7.3648173  73.4836435
   9.4283229 105.0287819  42.5124407   8.7195909 104.5000267  42.8789759
   9.5669967 104.6691322  41.6362810 100.2774429  84.0608978   3.9175048
 100.8792305  84.7319412   3.5953549  99.5955753  84.0091896   3.2477126
  33.8597393  36.2793779  82.8365517  33.8014221  36.0444355  81.9104671
  32.9807711  36.5838838  83.0622101  59.7397327  25.6268597  45.0409031
  59.0676403  26.2757778  44.8325014  59.3278408  25.0549698  45.6886053
  64.4054699  13.9621937  52.8231287  63.9773655  13.1671393  52.5055647
  64.7040558  14.4066834  52.0297098   1.5076753  56.9575167   8.4290993
   2.1541849  57.6358795   8.2339615   0.6625070  57.3872995   8.2979220
  22.4745655  90.0738144  70.5800676  22.2780180  90.3497410  71.4753151
  21.6968083  89.5898438  70.3023958 109.4804287 101.7577839  62.1068001
 108.5705185 102.0500946  62.0533895 109.9126244 102.1835518  61.3664198
  32.4959159  32.7844787  91.3407898  32.8323936  31.9422340  91.0347843
  33.2308054  33.3886433  91.2351608  85.3899384  52.2672749  81.6724968
  84.4999218  52.0697260  81.3808155  85.6100941  53.0876064  81.2311077
 109.2754841  68.8954067   9.5072824 109.1100693  67.9998875   9.2124730
 109.2208195  69.4236755   8.7109303  71.4488316  28.5350561  75.4085636
  71.7869568  27.7388763  74.9986887  71.5076923  29.2007780  74.7233009
   9.7726095  30.9194589  83.1498814  10.6617844  31.2417245  83.0024242
   9.3030328  31.1349678  82.3441029  58.6779547  15.7657516  62.3688173
  58.1846523  15.9044063  61.5603256  59.5950794  15.8445406  62.1063089
  67.7105570  36.6820264  37.1919966  67.7368546  36.0295153  36.4921594
  68.1478739  37.4485660  36.8213201   6.9161022  93.5529709  70.0229645
   7.0700663  92.8483772  70.6523085   7.3162949  93.2408810  69.2113733
  13.0603588  70.2752113  18.5834932  12.8800869  71.2070513  18.7076092
  14.0094292  70.1996136  18.6823916  48.0533171  21.1807275  65.6654072
  47.4926138  20.4275680  65.4794073  48.2194519  21.5731192  64.8082829
  50.0571299  40.9990883  38.2679558  49.4036531  40.5341387  38.7904716
  49.7560740  41.9076872  38.2611775 106.6232872   8.2652086  68.6261654
 106.9415569   7.3943335  68.8638878 105.7780457   8.1050003  68.2064915
  79.0210485  11.0879970  82.6843262  79.2301083  11.7747366  82.0511436
  78.0891371  11.2069345  82.8677082  65.4545927  96.6809750  12.2003436
  65.3774643  96.2384701  11.3550794  66.3313389  96.4541340  12.5103247
 106.1749172  90.6900501  11.6047263 105.2749252  90.6377888  11.2829864
 106.3011837  91.6155720  11.8137503  90.5626869   3.3269095  46.4549541
  91.0646725   3.4593424  45.6507730  90.2554798   4.2018345  46.6923618
  33.4246469  48.5916519  84.7766685  33.9637852  48.8703823  84.0364838
  33.6431694  47.6676083  84.8976040 104.8186016  65.6012487  41.9347954
 104.6580315  65.1901865  42.7841949 105.5049706  65.0664902  41.5358400
  55.5912828  17.0771956  82.2017288  56.0658598  16.5688467  81.5440178
  55.6039190  17.9736900  81.8665218  49.4466639  43.3759689  75.2465391
  49.8181725  43.1159115  74.4035769  50.1057053  43.9542627  75.6305552
  81.5690708  19.0578496  42.3157644  82.4630451  19.3910205  42.3935223
  81.6765308  18.1367409  42.0786047  45.9187508  87.8993034  71.6820335
  45.7176352  86.9695377  71.7884159  45.0877285  88.3445740  71.8474579
   6.9682080  94.1470909   2.8329122   6.1542106  94.5802498   3.0898491
   6.6905236  93.2941437   2.4988319  86.9992447  47.2047043  72.3661137
  87.3527718  47.2712421  71.4790821  86.9360352  46.2635469  72.5287819
  48.8339043  27.5602579  36.4884400  48.5989952  27.8196430  35.5975032
  48.5457850  26.6500092  36.5567279  21.4029121  88.9579487  12.2244358
  21.5700126  88.4437656  11.4345503  20.7350636  88.4609795  12.6969087
  99.6674538  40.1263618  75.3374004  99.0628338  39.3891525  75.2525902
  99.9029541  40.1374769  76.2651110  58.8229990  37.1616507  90.0765228
  58.3847713  37.4930573  89.2927170  59.4071102  36.4760232  89.7525501
  88.2922077   3.2750064  59.6306419  88.2057762   3.8063276  60.4221344
  89.2243004   3.0618650  59.5858526  70.9828663  36.5551353  70.6303072
  70.0528622  36.7692995  70.5564404  71.4345598  37.3342848  70.3060627
  69.6667004  71.3387537  18.6927843  68.9311171  71.8695879  18.3872211
  70.4318905  71.9028664  18.5810256  57.6014519  47.9762936  70.4309940
  58.4951067  47.6572275  70.3052568  57.5353527  48.7371063  69.8539114
  30.4858828  39.9987602  78.8239241  30.7220316  40.7675695  79.3429565
  29.6633554  39.6943521  79.2073488  73.8172674   4.6034697  77.5552845
  74.5485210   5.0518215  77.1304607  74.1630220   3.7390950  77.7778625
  45.9554625  31.6528583  79.5868063  45.3337812  32.3793101  79.5419550
  46.1005449  31.5192556  80.5234718  78.8100481  72.9209852  11.3622487
  78.8097811  73.4279823  10.5503488  79.6850300  73.0534601  11.7270660
 101.4217663  48.8104010  57.9982996 101.4578438  49.2005205  57.1249533
 100.5079556  48.5462236  58.1050444  29.4907260  37.2445941  74.2779303
  30.3737521  37.0661616  73.9544201  28.9436913  37.2464108  73.4924459
  77.8129768  26.1844587  34.7746730  77.8795385  27.0625806  34.3995619
  78.3166361  25.6304550  34.1783190  92.9025936  83.7615585  10.8336532
  92.3855686  84.5242691  10.5744469  93.0513287  83.8805866  11.7717052
  42.3573542  30.6688690  67.1589708  41.4879513  30.8278775  67.5265169
  42.9045153  31.3610983  67.5300026  75.6709099  26.8681717  80.8661938
  75.3209114  27.4643564  80.2041531  76.2646770  27.4096823  81.3862228
  31.5077662   5.6191283  53.7719250  32.4078298   5.4270512  54.0350342
  31.0439157   4.7890061  53.8813400  80.9875870   1.8182781  68.9794254
  81.3304615   2.5305447  68.4396696  81.0682392   1.0398764  68.4282303
  78.0345774   3.1277129  74.6339941  78.5143089   3.9544839  74.6843815
  77.2321510   3.2857108  75.1313686  15.2146113 102.5242996   1.3366294
  14.5748520 101.8739414   1.0468333  15.7592285 102.6844883   0.5659395
  83.1740665   9.3059397  36.0371256  82.9642677   9.7335970  35.2068710
  83.7144375   8.5554546  35.7901406  82.1341991  31.9096351  65.8146954
  81.3187027  31.4119816  65.8742189  82.1566868  32.4295545  66.6180706
 108.0537033  18.9563453  66.9667768 107.1854591  18.6056030  67.1651697
 107.8863430  19.8419654  66.6444445  85.4489422  21.4166141  80.0030899
  85.1666260  20.5065346  79.9121046  86.4048767  21.3702846  80.0200653
  25.2347612 106.4815521  25.9213209  24.7797847 107.3228264  25.9598756
  24.6330881 105.9052372  25.4500651  69.7778273  20.9083200  74.2586184
  70.1817369  21.4782023  74.9130821  70.3190660  20.1188374  74.2617369
  59.8515081  21.6762066  78.6741829  59.4638968  21.3061976  79.4673300
  59.1568375  21.6175318  78.0182743  67.6977205  35.2483964  79.9601889
  66.7531300  35.2282739  80.1137447  68.0624151  35.6268334  80.7601929
  83.8097191  22.8678346  77.9204845  83.2276630  23.5313177  78.2909441
  84.4764423  22.7313471  78.5935974  71.4201927   3.9820966  75.0372744
  71.0854530   4.5009923  74.3058872  72.3589230   4.1685492  75.0533819
  96.5774822  52.0768356  77.8611994  96.9449329  52.7954102  77.3465538
  95.6596851  52.3175430  77.9874706  71.6705132  35.7865715  91.2024403
  71.1396980  36.4472246  91.6474152  71.7048073  36.0802794  90.2920628
   0.7697650  34.3259001  81.6594028   0.5088580  33.4085727  81.5777206
   1.5169409  34.3100524  82.2574902  63.0731583  31.3024116  77.5410604
  63.5573912  31.7773080  76.8656158  63.0724812  30.3934789  77.2409391
  85.0171947  64.1835833  66.5977001  85.8918095  64.0934896  66.9760895
  84.5422077  63.4118271  66.9059420  98.3711720  76.8087959   3.5276818
  97.5019550  77.1764755   3.6873642  98.2235146  75.8654547   3.4603095
  70.4841518  24.3136692  54.3397808  69.5933771  24.6437359  54.4573116
  70.5387211  23.5580301  54.9248123  85.5591488  23.9053178  73.5276890
  85.1718903  24.6633148  73.9655256  86.4970493  24.0952349  73.5048294
  78.9811134  39.5063448  81.3277340  78.2714272  40.0078344  80.9263802
  78.7134171  38.5925031  81.2304592   4.6038708  91.5993690  -0.0936831
   5.4182565  91.7388439   0.3895922   3.9130965  91.7839241   0.5427141
 102.1894264  62.1773195  81.4533424 101.2550735  61.9694519  81.4511871
 102.5269508  61.7713404  80.6549072  96.7070866  38.5432434  62.5360250
  96.3075638  39.3112326  62.9444408  97.2165298  38.8973761  61.8071270
  23.3022118  76.5107489  13.8538349  23.2583475  75.5983114  14.1397762
  23.2702184  77.0177794  14.6650863  84.8075676  34.3623352  50.7938576
  84.3611622  33.5163045  50.7594681  84.9497700  34.5203495  51.7271566
  83.9852905  40.8669281  66.2735653  84.6511269  41.2942457  65.7347822
  83.2765484  41.5076923  66.3314104  28.6257291   9.1187572  75.7353067
  28.3276749   9.3521529  74.8561430  28.5807323   8.1628746  75.7575703
  80.0189114  29.8712683  59.4250774  79.5795298  29.0314794  59.5589924
  79.3070507  30.4917645  59.2686462  16.2767541 104.6099377  66.5133810
  16.3815033 104.0371704  67.2731113  16.9219863 104.2911243  65.8822966
 103.7410831  25.9850931  67.7586317 104.6709919  26.1475825  67.9170418
 103.4620285  25.4481387  68.5002804  12.0106924  97.2588062  48.3815956
  11.2963367  97.0226383  47.7898502  11.8048799  98.1507206  48.6615276
  71.9184971  35.8678842  82.1489525  72.4358320  35.1355124  82.4839592
  72.1680403  35.9356260  81.2273407  62.9302025  39.3168259  84.0688610
  63.8295364  39.6222186  84.1879082  62.6676750  39.0020323  84.9338531
  42.4128962   7.4033022  69.7093105  42.6762438   6.6073376  69.2474413
  41.5252686   7.5788677  69.3970203 100.8640289  11.8745923  70.5026913
 100.1327991  12.4571323  70.2973318 100.8382702  11.2070358  69.8171759
  88.8402843  65.8194542  10.7916629  88.2519913  65.1071739  11.0422647
  89.4142437  65.9337711  11.5491140  76.3499165  20.9496498  81.5504837
  76.9269657  21.6891599  81.3597679  76.6382408  20.6356764  82.4075222
  59.5340538  42.9975986  82.4547386  60.4205036  43.0226564  82.8150368
  59.5243597  42.2202063  81.8963528  74.2597485  14.1258311  35.2835226
  73.3616161  14.1575289  35.6130385  74.3621492  13.2334673  34.9527144
  45.1458502  23.3989358  65.5853558  44.4442511  24.0500784  65.5828476
  45.9169197  23.8788319  65.8876514  63.5712337  16.7753124  73.2027006
  64.4722462  16.4817965  73.3378315  63.6342525  17.7294028  73.1582975
  29.1815329  43.0341244  55.1667118  29.6429849  43.0507660  54.3282509
  29.8224640  43.3585358  55.7993221  49.6427727  16.3944566  51.6504335
  50.1014805  15.5664396  51.5082788  49.2012739  16.5694344  50.8193493
  50.0955343  99.2691898  76.6704321  50.1254368  98.4257126  77.1219492
  49.1721916  99.3895340  76.4486313  79.1111040  41.5373230  76.6188049
  78.5692024  41.6176414  75.8338690  78.6943579  40.8417177  77.1274185
  67.4629688  42.9461622  88.3824730  68.0443430  42.8488779  89.1366482
  66.6152096  43.1776714  88.7618637  44.9376774 103.0766964  15.0454915
  44.7523403 103.3775711  14.1559076  44.3298149 103.5696793  15.5965853
  80.4247475  48.7495756  87.5604916  80.1974297  47.9429579  87.0979691
  79.5896626  49.0782642  87.8933907  55.7665443   3.0578309   4.9723366
  56.5731144   2.8018579   4.5249540  55.4066467   2.2360671   5.3061199
 105.4056168  47.7985334  89.6116257 104.8714638  48.5059166  89.2503548
 105.1692009  47.7693939  90.5387211  89.5538044  26.8707919  90.8218956
  89.5014763  25.9169006  90.8817673  89.9218559  27.0364666  89.9539566
 104.4553375  19.9018359  50.1118755 105.4097366  19.8597431  50.0520658
 104.1501713  19.1493773  49.6050119  49.9116087  57.1058512   6.9472140
  49.7377110  56.5514326   6.1865497  49.5128822  56.6378689   7.6808608
  89.9443531  11.0833311  81.7596054  89.4212341  11.8546319  81.5412521
  90.4881477  11.3633525  82.4958801  81.9279861  -0.1529543  58.1589603
  81.6952896   0.4405681  57.4449444  81.5294361   0.2391824  58.9358902
  35.2685070  43.7498617   3.8678440  34.4635630  43.8485575   4.3763271
  35.9209561  44.2564440   4.3514913  68.1550598  39.3298054  62.6274538
  68.4206200  39.8777509  61.8888998  68.0850410  38.4490395  62.2592449
  48.9933443  36.3132405  61.7269850  49.7122717  35.8947253  61.2534714
  48.2056522  35.8802462  61.3979149  76.7376089  21.4259982  78.5630941
  76.4651251  21.4565849  79.4801807  75.9501362  21.6590643  78.0713606
  43.7454891  17.8688335  75.5665874  43.5817766  16.9270265  75.5172920
  44.6931934  17.9416001  75.6797314  88.9746666  26.1711144  47.5570679
  89.1470432  27.0351243  47.9312372  89.8417854  25.7820368  47.4432993
  54.2702770  35.1089072  75.9146786  54.3435860  36.0096383  76.2301826
  53.5928535  35.1460361  75.2394390  72.6316500  17.0066607  45.9711695
  73.4085846  16.4685249  46.1228657  72.1865606  16.5831733  45.2371502
  19.1798460  32.8900576  61.4956617  18.3545291  33.3627176  61.6037083
  19.2726266  32.3826957  62.3020172  95.0549507  43.8488865  72.3711634
  94.2186069  43.9268064  71.9121456  94.8134422  43.6938810  73.2843351
  63.2137823  30.4109406  60.6161356  62.7975845  30.4012394  61.4780617
  64.0527344  30.8487129  60.7601833  49.2948771  28.4734869  88.9349556
  48.4573603  28.7741947  88.5822868  49.4954920  27.6826930  88.4343243
  43.4983683  42.7934837  92.3661041  43.2352972  41.8759537  92.4379158
  44.3750811  42.8219748  92.7492428  88.3893108  36.1995173  56.7213726
  88.7874508  35.3920507  56.3962364  89.1301632  36.7837310  56.8828154
  93.4200859  16.0761034  82.0228863  93.3576393  15.1901555  82.3798561
  94.3545341  16.2812841  82.0533466  97.2127533  41.9278002  80.2439785
  96.5037823  41.3483810  79.9649572  97.7971268  41.3642406  80.7510757
  48.7404585   6.1065316  66.6987276  48.3301020   6.5478551  67.4424171
  48.5604525   6.6778290  65.9521055  86.2627792  21.6259980  75.8773327
  86.2360764  22.5541639  76.1097670  85.4200268  21.4605856  75.4546833
  86.1518383  97.4908257   2.8393045  86.3481617  98.4276676   2.8425667
  85.5612183  97.3672867   3.5823673  93.0506992  56.4984274  78.9517641
  93.8521290  56.5618944  78.4322309  93.3067036  56.7969847  79.8244333
   8.0629456  48.1953192  59.9348783   8.9535105  48.2468367  60.2819681
   8.1726104  47.8704453  59.0411997  48.5969877  30.0859547  61.3455868
  48.7395763  30.1741910  62.2879839  47.6711226  30.2955437  61.2227774
   7.6403588  53.3538723  88.8826847   7.9671258  53.5374641  89.7634506
   7.6222318  54.2080450  88.4510708  83.7025452  22.0002437  74.4461632
  84.2282581  22.7118778  74.0808725  83.0635262  21.7991948  73.7624550
  69.0234327  31.8092418  86.1145496  69.0434504  32.6853395  85.7294655
  69.0277243  31.2169552  85.3626060  95.8951187  63.2031107  71.7787838
  95.9332561  63.5517645  70.8881569  94.9660492  63.0272388  71.9275570
  76.1100483  35.8117604  38.9883757  75.6305647  35.7845902  39.8163795
  75.4797888  36.1604476  38.3579636  73.9172459  67.2832775  88.5220528
  73.2430172  67.9259634  88.7425041  74.0908766  66.8263960  89.3450546
 103.8287163  82.9414940   4.0719822 103.0473614  82.4952412   4.3984413
 103.7550926  82.8871155   3.1191683  79.4138098  65.2886486  54.7519302
  78.8916874  66.0484123  54.4942999  79.1566563  64.6016502  54.1370010
  75.3826523  26.5849900  93.1744194  75.7517910  26.2931323  92.3408794
  74.4352579  26.5480518  93.0428410  74.5380163  44.3334341  82.4776840
  73.8049269  44.8447466  82.1350861  74.2703152  43.4220600  82.3594952
  89.3797779  57.2927475  61.2827635  90.2411270  57.4933720  61.6489124
  89.1196346  56.4790010  61.7144728  25.8430982  14.9120498  75.0273609
  25.1188517  14.4462132  75.4453278  26.3846040  15.2159190  75.7558298
  90.0055790  26.9168854  74.8646164  89.8203182  26.9802570  75.8015776
  89.8025513  27.7868867  74.5209455  20.6474161  73.1213331  80.1615524
  20.6016660  73.6323690  79.3534756  20.9195590  72.2485685  79.8779154
  76.8985891  48.7258720  62.4801254  77.5751114  48.3774853  61.8994570
  77.3434210  48.8504267  63.3184814  14.0325272  50.6441021  77.4566650
  14.4234180  51.2807608  78.0550814  13.1243384  50.9310913  77.3614645
  29.9275875   0.6797302   6.1545366  30.7083750   1.2322973   6.1188996
  30.0646544   0.1204654   6.9191724  71.5202808   1.3130365  62.6697636
  72.1939516   0.6630448  62.4699879  70.7525063   0.7954438  62.9123592
  92.6529121  73.0839491  91.0464191  93.5577488  73.2183504  91.3282681
  92.6416397  73.3697128  90.1329422  94.8742294  39.6624041  66.3890028
  95.4091454  38.8870668  66.5591526  94.0132046  39.4420552  66.7444038
  94.4090748  19.0815258  79.1268587  93.4937859  19.3174040  78.9757252
  94.7737026  19.8285544  79.6014404  96.4146233  29.3879771  86.2654686
  96.1064148  30.1300168  86.7856789  96.3894176  28.6454439  86.8689919
  81.7910290  52.5595856  83.7001419  82.7287674  52.6024580  83.8873196
  81.4800549  53.4557962  83.8279438 105.1501465  47.5935411  56.4553118
 104.8638439  48.4732199  56.7011404 104.3453598  47.1420956  56.2008762
  70.6140900  35.8070564  87.9626751  70.8454275  36.6161704  87.5065422
  69.9951077  36.0819888  88.6390591  86.0703945  43.9636707  91.2552261
  85.3682423  43.7594223  90.6375694  86.8325520  43.4951115  90.9149361
  86.6795349  35.7828641  59.6573305  86.4850807  35.4660439  60.5393982
  87.5741386  36.1183929  59.7151470  63.2366753  20.7150102   6.8096745
  63.0499125  21.6094589   6.5245169  62.3890638  20.3719354   7.0926702
  11.5053034  60.5731392  84.7234631  12.0279825  59.8289394  84.4247818
  11.3636053  60.4076052  85.6555271  17.0282876  96.8714237  70.3409767
  16.3931358  97.4423409  70.7732487  17.0796263  97.2051239  69.4453001
  68.6889172  23.3064938  56.1628723  68.1572437  23.5729265  56.9129181
  68.8010502  22.3621845  56.2721395  11.0329628  46.8240261  63.2305384
  11.3824606  47.0277452  62.3630238  11.2812531  47.5740385  63.7709665
  64.5690584  77.7531672  92.3927307  65.4379749  77.3578978  92.4632835
  64.7402954  78.6767244  92.2084713  84.7033882  61.0438108  82.4807072
  85.6058884  61.2761450  82.2621918  84.7264767  60.8483887  83.4174633
 101.9357395  74.1877842  87.7946186 101.0414028  74.2646313  88.1270218
 102.4898338  74.3598843  88.5559273 112.1470451  44.3334293  54.0699387
 112.8122616  44.7552299  53.5260534 112.3012352  44.6799564  54.9487877
 111.8478298  51.1954212  88.2692337 112.6932430  51.5198803  87.9589939
 111.2629032  51.9502735  88.2037258  70.4152679  39.9894810  73.3683395
  69.7054863  40.0237274  74.0096426  69.9716377  39.9834514  72.5201702
  68.0086279  39.2411685  65.7216311  68.4411001  39.4930863  64.9057055
  67.7460289  40.0711250  66.1196756 110.0928020  53.6448479  85.4486370
 109.6454334  54.4891405  85.3915405 109.9446583  53.3556890  86.3490105
  81.9001389  36.5842223  81.7165470  82.1280766  37.4208355  82.1219635
  82.1919155  36.6704798  80.8089924  81.6577339  45.2455425  63.8983536
  81.2347984  46.0955000  64.0205336  80.9724617  44.6877241  63.5303116
  89.0602016  55.4695559  23.0280590  88.7899494  55.1973534  23.9050412
  88.6367130  56.3183069  22.8995728 106.1015320 100.0224781   3.1108719
 105.8509541  99.8182011   2.2099230 105.2713680 100.1806164   3.5603756
  95.7260799  38.0974746  54.9331903  96.2352943  38.4632564  55.6564760
  95.7860661  38.7558937  54.2410088  99.5834732  41.1048174  78.0064917
 100.2661037  41.6744471  77.6518345  99.9009514  40.8637190  78.8767290
  99.9489975  27.3716736  65.2385998 100.4498005  26.6337872  65.5863714
  99.0573120  27.0352221  65.1495743  11.3171756  57.7051687  84.8738289
  10.4281759  57.7868032  84.5285130  11.2940943  58.1740522  85.7080078
 107.3353291  69.3042660  91.5561867 107.6709843  68.6791039  90.9137344
 108.0911255  69.5122957  92.1054745  66.1901665  33.1250691  76.1950207
  66.1651993  33.4058833  75.2802801  66.5377140  33.8810492  76.6682434
  17.2327673  50.3935337  80.8175850  16.6542292  50.8234024  80.1877117
  16.6603255  50.1610136  81.5486622  89.6131420  58.2201052  69.5149660
  89.8454475  57.9055929  70.3886652  90.3639221  57.9867792  68.9689541
   0.4661941  48.2337713  40.4351664   0.6571123  47.6769018  39.6803975
   1.3260776  48.5068846  40.7549191  97.9455948  28.9501977  59.0491772
  97.2717094  28.5073090  59.5648909  97.9953575  29.8292899  59.4246101
   2.8323513  56.8295813  75.5264902   3.1391358  57.6711130  75.8640289
   2.5513253  56.3476181  76.3042879 106.6627121  32.2095346  88.3037090
 107.3912239  32.1727586  88.9235020 106.6144943  33.1298757  88.0451012
  90.0792313  17.0507979  72.6979780  90.7338524  17.1847761  72.0125866
  90.0147152  16.0997415  72.7849436  97.9230404  55.5637693  72.0077229
  97.0898438  55.1588869  71.7667294  98.5860729  54.9342299  71.7243624
  84.8739910  50.6364346  69.7393560  85.7398987  50.4646587  69.3693113
  84.6495914  49.8320675  70.2071905  80.3047466  55.1175022  83.8287449
  79.9584723  56.0085487  83.7801266  79.6544313  54.5826435  83.3735085
  93.3525372  75.7351065  82.5224972  93.5525131  76.4660883  81.9377804
  92.4802685  75.9328699  82.8635025  80.7695484  26.2512612  63.0563498
  81.0124207  25.4101753  63.4434128  81.0055637  26.8980217  63.7213516
  80.9956455   6.2383842  65.7646227  81.8455887   5.8119351  65.6551981
  80.8966255   6.3356155  66.7117119  42.1806860  26.5480900  82.2392368
  42.5928259  27.0559287  82.9381466  41.7107248  27.1976686  81.7163467
  80.6410027  58.4873390  79.3492317  80.1446056  58.4384632  80.1661968
  81.4255524  58.9869833  79.5752048   3.2927188  56.7303276  59.3041611
   3.1416321  56.4035654  58.4172392   4.2190963  56.9709778  59.3161821
  54.9456310  19.8541820   5.6258851  54.5504522  20.6442690   5.9944326
  54.6741486  19.1523004   6.2174010 111.4434624  83.7352085  56.4227104
 112.0601463  84.0665627  57.0755005 111.5369606  84.3320370  55.6802273
  81.4223862  55.4500723  70.3605747  81.8907547  54.9520254  71.0305071
  82.1034813  55.9581804  69.9199343  78.6453342  40.1451015  56.9514799
  77.9408216  40.7767200  56.8067360  79.3560314  40.6618452  57.3311138
  96.4068413  63.0654144  75.7808590  96.9802570  63.2585907  75.0391674
  95.9162140  63.8751793  75.9215546 103.1756115  73.4825039  71.5819120
 104.1088676  73.4976053  71.7941618 102.9739189  72.5554991  71.4545727
  41.3778543   2.3882936   9.7077805  40.7521820   3.1007797   9.8386574
  40.8977509   1.5989362   9.9580753  42.0379686  32.8815413  22.8480697
  42.3855686  33.4093022  23.5670090  41.6180801  33.5155773  22.2667575
  33.8485456  39.2210364  10.2968383  33.3183336  39.9456072   9.9650180
  33.2653093  38.4627604  10.2639139  70.7615280  88.6705303  83.0288982
  71.1885214  89.4236565  82.6206112  70.7835388  88.8619328  83.9665127
   9.2361569  66.4013529  44.7519159   9.5666283  65.8550835  45.4650831
   8.5019195  65.9049177  44.3904209  81.9703388   1.6408020  32.3880434
  81.8687534   2.4124697  31.8308711  82.7908421   1.7907885  32.8576422
  80.3396511  70.7738733  73.0902815  81.0052109  70.3017139  72.5899506
  80.6826496  70.7962799  73.9836311  14.3312705  65.5424786  25.4997325
  15.1213956  65.4418659  24.9688745  13.7916040  66.1635971  25.0106502
  17.0259345  53.7654495  88.4813690  16.2435067  53.3958292  88.8905430
  17.4148214  54.3153906  89.1614914  74.9917984  76.2881470  78.8774872
  75.7400513  75.9777975  78.3675528  75.0441599  75.8014965  79.7000790
 105.3124905  70.8680487  64.3921614 104.4789696  70.6537580  63.9731741
 105.2562332  70.4638243  65.2579975  87.1687126  43.9589834  65.8738136
  86.4247894  43.3907461  65.6740332  87.2438049  43.9288092  66.8275881
  96.0138988  89.9043751  71.9675589  95.8189964  90.5678272  71.3056850
  96.3792706  89.1715908  71.4718103 101.1397743  61.5828323  48.5793591
 102.0085907  61.8833637  48.8459301 100.8012009  61.1193228  49.3453646
  86.8754768  68.8955498  59.0148497  87.1159172  68.6687374  58.1165314
  86.1497688  69.5124674  58.9200592  78.6711550  62.7257109  75.9375334
  78.8957739  62.2203159  76.7187834  79.2663431  63.4750938  75.9577322
  81.0883522  54.7030354  90.7292080  80.7460594  55.4868364  90.2994156
  81.1759567  54.9531555  91.6489887  68.9989996  61.9636059  26.2918234
  69.2288446  62.1124506  25.3746271  68.2723808  62.5643635  26.4571905
 112.9957199  43.7719917  76.9205999 113.4425354  43.2341337  76.2669230
 113.6900902  44.0480089  77.5188446  86.4561367  68.7248993  30.3853822
  86.5705585  68.5240936  29.4565034  85.7844830  69.4066858  30.4020739
 103.9466763  75.2674484  53.1223917 104.0925121  74.8931885  52.2535467
 104.6031666  75.9599066  53.1981754  83.3590984  80.4041290  62.6993227
  83.9463329  79.6688175  62.5240803  82.7230644  80.0586796  63.3257151
  89.8757172  44.6169138  90.2507591  89.2844391  45.2401686  90.6728840
  90.3701305  45.1435041  89.6226788 112.7981281  89.0550804  87.6399803
 112.3433208  88.8423347  86.8250465 113.3783722  88.3091736  87.7922058
  94.3708420  61.6607332  28.6171389  93.7553978  62.1517801  28.0727768
  94.7080612  60.9760618  28.0394340  76.6564131  81.5195465  56.8702269
  76.6755056  82.2280979  57.5135136  76.9988680  80.7595730  57.3407507
  70.8617353 101.1999798  71.1578321  71.3510036 101.4043808  71.9547462
  70.4832363 102.0367050  70.8879089 108.4051323  65.4669666  77.5538683
 109.2899990  65.2955723  77.2315931 107.9574585  64.6237469  77.4845314
   5.3645718  65.9085464  70.8745193   5.4333812  66.4137363  70.0644112
   5.8856201  65.1223135  70.7114792  88.9632893  57.8183031  36.9371533
  88.1533432  58.1447983  37.3291135  89.6158504  58.4875822  37.1431971
  57.4970293  22.4025583  16.3017964  57.8474092  22.4611473  15.4129589
  58.1876516  21.9693804  16.8034220 101.4362717  75.2756500  90.9103680
 100.8990669  75.0979948  90.1383114 102.3353100  75.2754164  90.5818176
  69.6340609  65.4378700  53.5673857  70.4296446  64.9203396  53.4431362
  69.9433422  66.2708473  53.9233637  63.9152813  15.9734619  10.2840590
  64.3916941  15.1824725  10.5362427  64.4653559  16.3813996   9.6153009
  95.6274033  21.2477612  72.3455286  96.4232445  20.9735131  71.8898344
  95.5388165  22.1772099  72.1345520   8.8127905  74.1127396  61.4336824
   8.0902165  74.7246838  61.2935305   8.7888098  73.5350657  60.6708288
  99.9343586  51.9119453  82.0764065  99.0158081  52.0296764  81.8342590
 100.2538204  52.7988338  82.2425652   6.1747998  35.8735132  81.8222618
   6.3707334  36.7855692  82.0367241   6.9598293  35.5589199  81.3739395
  87.7385235  45.9946871  82.9136086  87.5828648  46.4416409  83.7456226
  88.3962154  45.3299904  83.1181908  18.8444066  94.4969559  59.3154669
  18.9924467  94.7659206  60.2220917  18.0140960  94.9086475  59.0760374
  73.9463615  66.8198013  62.4449062  74.3181419  67.6362848  62.1111965
  73.0682516  67.0597887  62.7408123 104.3496990  90.9683514  74.8078346
 104.9125576  91.7423820  74.8248053 104.4678402  90.5673695  75.6689310
 107.6884270  52.5983334  61.4344931 108.1797409  53.3491182  61.1010790
 107.1221638  52.9650831  62.1135187  99.3296719  42.7884388  22.6416850
  98.4723949  42.5276852  22.9783082  99.4090080  42.3281908  21.8061566
  67.6424503  16.0903728  14.1575086  67.8118324  17.0228136  14.2920232
  67.1573162  15.8201551  14.9371600  81.3640022  39.4334865  87.7297306
  82.3086071  39.3108511  87.8241348  81.2660694  39.9173570  86.9096661
  81.4779091  78.0357313  92.4962711  81.7482185  77.9499149  91.5820503
  82.2272205  78.4436131  92.9303074  87.0952225  77.5874996  46.2417459
  87.7595520  77.0318794  45.8340883  87.5930882  78.1897879  46.7945719
  93.4871960  78.1881285  53.2802582  92.8493977  77.7665043  53.8561726
  92.9850960  78.8585186  52.8169060 103.4521198  40.0405025  63.4300137
 104.0685940  40.3824711  64.0775108 103.8560581  39.2302537  63.1192732
  26.4284158  91.4208412   4.4911420  26.2373757  92.1943951   5.0215697
  25.6293964  91.2743092   3.9848521  16.5346467  26.4479089  63.5967827
  16.0506737  26.1123276  62.8422070  16.1834669  25.9610677  64.3423605
  84.2700672  48.2490587  71.1574268  83.9090252  47.3626614  71.1441994
  85.1681995  48.1372356  71.4690208  48.7937546   6.2595195   4.8326737
  47.8999376   6.2143648   4.4931471  48.9784002   7.1965218   4.8972046
   9.8734242  62.7178717  59.8247099   9.6424204  63.5551023  59.4223166
   9.0858829  62.4559402  60.3015757   5.5736834  46.4589167  81.0637569
   5.7763636  47.2848034  81.5031433   5.6227428  45.8005428  81.7568398
 101.4158916  31.7252016  56.8992186 101.0429382  31.3597631  56.0969734
 100.7450867  32.3263979  57.2229815  96.7122459  24.9736762  91.3737297
  96.1381149  25.6723380  91.0599136  96.1219501  24.3511558  91.7982864
  59.2028379  22.4213624  10.4994488  59.6140432  22.3180270  11.3576245
  58.9425802  21.5345812  10.2502251  50.8135843  88.0775547  79.7035742
  50.8047342  87.1762562  79.3813515  51.7423248  88.3012390  79.7638941
  69.6013403  78.1488323  37.5448704  69.9958706  78.7232924  38.2010555
  70.3379488  77.8579187  37.0072818 106.9814014  39.1521931  41.1817551
 107.3571682  39.0117431  42.0508337 106.5577412  40.0085878  41.2395382
 113.1799316  57.7119923  51.0021162 113.2208633  57.1704960  50.2138662
 112.7011204  57.1772957  51.6354179  75.2147388  44.3586397  85.1590347
  75.7123280  43.5499763  85.2802563  75.1303196  44.4479036  84.2097473
  65.5975151  79.7784853  67.8146982  66.2424517  79.6771479  68.5147142
  65.5101490  78.9016914  67.4407530 107.3052120 100.5681038  46.4093399
 107.8026390 100.9812832  45.7035923 107.9080296  99.9250221  46.7825651
  37.2019005  98.2019997   8.1140643  37.6053929  99.0227127   8.3966243
  37.4441934  98.1211376   7.1915746  97.3999596  33.8903475  87.9962540
  98.1030369  34.4666862  88.2958412  96.6079903  34.2518282  88.3941841
  96.2388897  50.3784752  31.7781425  95.8769035  50.2382755  32.6530957
  95.6908894  49.8437214  31.2037134  85.2414799  83.2175636  66.2550020
  84.4015598  83.1224632  66.7041206  85.0541401  82.9864120  65.3452206
 112.6892090  65.5453491  74.0780926 113.4091091  66.1182022  74.3423176
 112.9206467  65.2623367  73.1934595  28.7301183   8.5544670  31.8634152
  28.0956149   8.6756670  32.5697780  28.2118583   8.2226390  31.1302519
  76.5025520  21.8787360  15.3373468  76.6583586  22.7956629  15.5636191
  77.2054815  21.6602516  14.7254777 113.3930969  46.6240454  86.7116737
 113.4939194  47.0632887  87.5561428 112.6265812  46.0618734  86.8241119
  34.0810037  21.0608220   0.5942494  33.7411284  20.2248168   0.2751684
  34.9288082  20.8426356   0.9813569 106.7764759  70.9228706  75.1145124
 107.2149467  70.7365561  75.9447336 107.3508549  70.5428696  74.4497395
  94.9838066  80.1721764  90.6320000  95.2190590  81.0986805  90.5822468
  94.0306759  80.1714802  90.7201958  88.8917160  24.0354896  90.5090618
  88.3334351  23.4638739  91.0361481  89.7512817  23.6147642  90.5282688
  64.3833303  80.2582741  53.1111908  64.1528749  79.3378735  53.2376146
  63.9240456  80.7188225  53.8134670  98.7449837  50.6559706  51.6655827
  98.7792683  50.3947401  50.7453585  98.0160332  51.2746096  51.7119455
  55.5352736  43.5219669   3.1581154  55.0935507  44.3619299   3.0333292
  56.1434793  43.6762571   3.8809645  29.2062473   3.9169854  92.3948097
  29.0321994   4.8573980  92.3552704  30.1609087   3.8492054  92.3786926
   5.1846439  95.4857540  62.3784208   4.3239859  95.0930214  62.2326136
   5.7931972  94.7475719  62.3469543  77.5936747  94.1967773  73.9537287
  78.1388712  93.8708019  73.2376719  77.5337744  95.1395035  73.7991238
  89.3973637  54.3182182  52.1838093  90.3095341  54.5177364  51.9731808
  89.4499493  53.6463261  52.8635359  82.1061230  60.7805204  88.8646793
  82.7900314  60.2416801  88.4670067  81.3939095  60.7739830  88.2251930
  87.5323582  67.9801369  64.0617514  86.8038368  67.3614979  64.0090990
  88.2997799  67.4328184  64.2283058  91.9852924  56.1028194  69.1341829
  91.1805534  55.7920456  68.7193918  92.6884460  55.7182217  68.6108446
  41.9628000  26.2285638   0.9786158  42.7262020  25.8400249   0.5514304
  41.2160301  25.9061408   0.4740270  91.8079662  81.5949249  88.2228756
  91.7787647  81.3839722  89.1560841  92.2817230  82.4255466  88.1797886
  76.9228411  95.9476566  33.2509065  76.3880157  96.7067337  33.4832692
  76.7739964  95.8278656  32.3129678  27.9465437  60.7176876  38.4979129
  28.6041141  60.6173992  39.1862273  27.9905558  61.6431904  38.2576370
  14.2517233  51.9933987  74.2980146  14.9711931  51.8563509  74.9143028
  14.6223044  52.5567818  73.6186695  73.9106703  78.4715509  82.3136616
  74.6566200  78.6060286  82.8982162  74.2848349  78.5161018  81.4337444
 101.3461971  64.4879866  86.4686108 102.0936966  63.9102602  86.6225815
 100.8713722  64.0778065  85.7457447  80.8241081  38.6640453  72.8753042
  81.6746235  38.7417364  73.3075380  81.0344315  38.5891390  71.9445086
   2.7875993  68.4431934  83.3253384   3.7151331  68.5296106  83.5454464
   2.4249150  69.3173075  83.4689236 101.2730408  40.9649992  64.6483994
 102.0597553  40.5828142  64.2595005 100.7445812  41.2395954  63.8990211
  26.0387611  81.9948196  64.5060587  25.8725333  82.9373741  64.5201397
  26.2099552  81.7955303  63.5856199  95.5454350  26.6781187  11.5771222
  95.3524780  25.7603168  11.7685437  95.6035614  26.7165852  10.6224644
  90.9460163  47.4805069  68.7488699  91.3793182  46.9112539  69.3848228
  90.0135231  47.3953676  68.9475060  88.9020443  68.5536146  60.9898615
  88.2118988  68.7462854  60.3551912  89.2177582  69.4131470  61.2687159
  94.7665787  58.0270243  56.5624714  95.1168728  57.9692602  57.4513960
  95.5331707  58.1906414  56.0131073   1.6667511  42.2226381  51.2145138
   2.2509126  41.5728951  51.6054392   0.7870437  41.8813801  51.3754177
  29.7682714 100.5571461  12.8256941  29.5751667 101.4899635  12.9194486
  30.0730109 100.4651833  11.9229698  61.0406828  26.2037373   0.2617932
  61.7013836  26.8299437   0.5577240  60.6801319  25.8366132   1.0689185
  12.8748357  65.4168510  75.5219841  12.4920523  64.7634029  74.9365664
  12.8340375  65.0143909  76.3895082  84.5590973  86.0989380   0.1504283
  83.8794518  86.5172482   0.6789382  84.0841484  85.7009411  -0.5791247
  86.3249397  51.1329222  88.4751320  86.3624859  51.7713118  89.1873741
  86.0075760  50.3304243  88.8892651   1.7334448  87.1447563  48.2535934
   2.3564178  87.2968578  48.9642286   1.1568552  86.4557934  48.5839081
  58.1404734  48.2061720   3.4069380  58.7902784  47.5196648   3.5575736
  58.0319452  48.2287788   2.4561793  75.3167200  91.1415863  55.3641510
  74.9999857  90.2544212  55.5340004  75.9950733  91.0302925  54.6980572
  84.2414665  60.0637293  84.9700069  84.6354866  59.5804358  85.6962299
  83.4399033  59.5810843  84.7680283  90.1684380  58.3217859  85.7596970
  89.5044231  58.7254047  86.3186359  89.6677017  57.8771210  85.0757599
  98.0356598  71.4477396  66.2109375  97.0899677  71.4517975  66.0630465
  98.1716633  72.0883226  66.9090700 110.9773731  47.3531103  71.6768742
 110.4859352  46.7682123  71.1001492 110.3423595  47.6254606  72.3393059
   1.3178067  47.6993084  62.0548916   1.8799779  47.4589157  61.3184118
   1.4538173  47.0028830  62.6973248 110.8082294  70.0572872  56.8242884
 111.4213276  69.4294691  56.4419508 110.2783871  70.3553200  56.0849094
  99.0258884  76.1839485  80.6918907  99.7795486  76.6847038  81.0041046
  98.6501980  76.7247152  79.9971485  86.8417072  57.1928310  84.6958351
  86.8710518  58.1369305  84.5407772  87.6305103  56.8557215  84.2711258
  87.0961571  49.3674946  78.9241266  87.1250248  49.0403032  79.8232079
  87.8094864  48.9095068  78.4795570  59.0105266  17.8976124   0.1602373
  59.3140525  17.1186464   0.6264123  58.8317412  17.5903767  -0.7285109
  23.3501220  74.0083313  64.1111422  24.1931081  73.7508392  63.7379074
  22.8702593  73.1858969  64.2089605  78.7749243  76.5704536  53.8765955
  79.2028570  75.8332253  53.4411669  77.9015303  76.6049051  53.4864378
 101.6046238  90.7460117  51.7188406 101.2513065  89.9858952  51.2566423
 102.4884224  90.8510208  51.3665676  75.1659489  66.3873625  64.7249508
  74.6615219  66.6363430  63.9504862  74.9660587  65.4600763  64.8530579
  60.0004005   1.1543766   1.3352244  60.2932119   1.3457924   0.4442401
  60.7129955   1.4653836   1.8935382 101.1087322  64.8022985  77.7439594
 100.9811115  64.6052694  76.8159914 100.2295494  64.7624683  78.1203794
  28.7943721   4.3934998  15.2000630  29.6646905   4.6877468  15.4687572
  28.2085013   4.7264785  15.8798516 111.5286446  60.6279039  71.8949747
 111.0864449  60.6988382  72.7409458 111.5845966  59.6863127  71.7321730
  54.4437599  57.8190708  85.5822372  54.4510031  56.8626451  85.5444908
  55.3539705  58.0717707  85.4276848   8.6338180  53.3533764  63.4613991
   8.8355148  54.0225363  62.8073549   7.9625893  53.7534428  64.0142393
  84.3122959  70.6994152  60.5588531  83.8987446  71.1448526  61.2983084
  84.8963451  71.3562393  60.1797819 101.8666363  76.2801409  66.2057114
 102.5491333  76.7879629  66.6445112 102.3092556  75.4811668  65.9194374
  69.8984575  11.3421011   9.3671393  69.9916792  11.2576115  10.3160357
  69.5162296  10.5097795   9.0889728 103.5235882  40.4739523  87.3219681
 102.8861427  39.9257255  87.7795029 104.3198490  40.4059935  87.8488255
 113.8656596  79.7177792  57.8240395 113.3985649  79.1108608  57.2498417
 113.4400182  79.6175337  58.6755180  96.4297009  66.0971928  52.1754646
  96.0031223  65.8248568  51.3630056  95.8926582  65.7129765  52.8684139
  82.9677010  87.5661564  67.7178097  82.8341579  87.7258396  68.6521006
  82.5155640  86.7395210  67.5490713  12.4832475  71.4701891  70.9699202
  13.3056927  71.2280464  70.5442619  11.8055487  71.2168646  70.3431940
  94.2228222  44.9992228  89.2247009  93.4039402  45.2743864  89.6369457
  94.3540668  45.6244850  88.5119247 111.4860439  65.6760311  64.2493343
 111.6140079  65.6937933  65.1977777 110.9915066  66.4732695  64.0594053
  93.3727455  50.5722237  58.5479879  94.3019009  50.3831530  58.6789989
  93.1352234  50.0751114  57.7652454   5.2941370  59.3435669  70.4606056
   4.8113945  58.6445618  70.0194836   5.6654519  58.9249992  71.2372398
  66.0933876  85.5642223  51.3928127  66.2326145  86.4513016  51.7243767
  66.7992783  85.4314804  50.7600975  91.7435169  68.3001852  79.3407631
  92.1649170  67.9805279  78.5429716  91.6132069  69.2355156  79.1845417
 101.4324284  51.7350340  89.1961288 101.3094997  51.5504122  88.2649803
 101.9052887  52.5670719  89.2149448  68.9128065  59.4790697  56.2286568
  69.3791342  58.6462069  56.3001394  68.0049610  59.2644262  56.4430857
   2.4397206  61.5296745  46.2792778   2.2602475  62.0523548  47.0608330
   1.7196479  60.9001446  46.2415934  94.8324776  41.9672203  22.6937175
  94.7371864  42.5245857  21.9213867  95.7535553  42.0537758  22.9393840
  71.5910816  71.2416983  81.7455292  72.0941639  71.1518192  82.5548935
  70.8256435  71.7592335  81.9955254   5.5616486  84.8349762  92.5735569
   5.8426160  85.4346561  91.8824196   4.6798831  84.5673084  92.3145676
  81.8054581  17.0581710   6.3361222  82.0504951  17.9776120   6.4401281
  82.5036812  16.6834855   5.7991582  71.6943455  91.0549545  69.5356178
  70.9665728  91.5856361  69.2116547  72.2397614  91.6701603  70.0257969
  51.7361927  37.8685665  31.2833571  52.3225117  37.1241975  31.4189148
  51.7218876  37.9924655  30.3343177  90.0894356  66.9991827  65.3158522
  90.6812096  67.2984266  66.0061359  90.5550671  67.1903467  64.5016813
  81.6938019  27.1423101  -0.1065873  80.8938122  27.5017166  -0.4900895
  81.4458275  26.9062638   0.7872920 100.4207134  46.2274361  56.3450909
 101.3389111  45.9700012  56.2621260 100.2977085  46.8963289  55.6715345
  66.9138813  14.6797144  39.4707012  66.2758970  14.9428153  38.8073850
  67.7350473  15.0803900  39.1854453  76.6272449  57.5133848  77.9949713
  77.0871305  56.8208885  78.4695053  75.8748150  57.0735550  77.5992012
  74.9065733  62.3685551  73.3385658  73.9553738  62.3979425  73.2357073
  75.2464581  62.7708483  72.5392723  61.3527966  74.3731213  52.3890829
  61.3656092  75.2558088  52.0190430  60.5356407  74.3335772  52.8860044
 103.6528206  58.7737513  87.5933075 103.5950947  59.4518089  86.9201565
 104.5843124  58.7291574  87.8090858  79.3632841  65.3474951  89.6865845
  78.5382414  65.6628323  90.0555038  79.5250559  65.9205294  88.9371204
  92.1679974  43.4801388  71.3207054  91.7493057  43.3882666  70.4648542
  92.4846172  42.6009369  71.5280676  22.8487039  70.0054836  32.1027136
  23.4035730  70.6221867  32.5802398  23.4588289  69.3573761  31.7506695
  79.2445755  72.2678804  82.4098682  79.4755507  72.1706343  81.4860630
  79.7469616  71.5857553  82.8554535  76.1116314  56.2715387  85.2078152
  76.1115456  55.6094503  85.8990955  75.8168936  55.8026886  84.4270802
  99.9194527  69.7913027  59.6712112  99.3726158  70.4836750  60.0424671
 100.0461578  70.0497532  58.7583160   1.0994200  73.1637955  56.7603827
   1.1637279  74.0414000  57.1370888   0.1606956  72.9771233  56.7469311
 103.4836197  93.4189796  69.2076969 102.6610279  93.6740017  68.7899065
 103.2302380  93.1485653  70.0902510 104.1335297  84.5559788  68.4862566
 103.7924004  84.8457527  67.6401520 103.4600449  83.9674091  68.8271856
   2.2947261  41.2767267  58.4655142   1.5595326  40.7081270  58.6944628
   2.2004949  42.0342827  59.0429688  44.0061712  17.6344407   1.6785505
  44.6868134  17.7258742   2.3453349  43.4434032  18.3984315   1.8044174
  64.1529560  57.6911688  24.9666739  64.1463518  58.5779476  24.6063828
  63.4158707  57.2539282  24.5403361  86.5871429  84.2231464  51.6917229
  86.5810680  85.0198460  51.1611986  87.3264694  84.3385029  52.2886419
 106.8587780  37.6969433  67.9688168 107.5410271  37.4228859  68.5817289
 106.0919380  37.8555942  68.5192919  17.2464943  96.6113377  62.6986170
  17.5960577  95.9802437  63.3277082  17.9483271  96.7243862  62.0576143
  22.1466899  55.9992027  60.0252962  22.4816966  55.5859900  59.2295218
  21.4236760  56.5491009  59.7234774   0.2826697  24.3414903  78.1606865
   0.7247706  25.0756121  78.5871172  -0.1037333  23.8434672  78.8810349
  12.5317442  90.5969048  23.0827141  11.8805456  90.7453728  23.7683725
  13.0646181  89.8727798  23.4112382 112.6224136  91.8906021  80.5355167
 111.8270493  92.4105358  80.6508446 112.3957348  91.0266018  80.8795357
  97.5345802  64.3800163  77.9560900  97.0093918  64.0665531  77.2197866
  98.0494118  63.6189175  78.2242632  57.9831266  34.9095488   9.8635280
  58.9033031  35.1563072   9.7706860  57.6757050  35.4109883  10.6186986
  27.7970290   9.6410656   0.1434997  27.4078965   9.5159179   1.0090319
  28.2191873   8.8046503  -0.0525196  30.3444076  29.8421335  15.2439439
  30.8181763  30.1736546  16.0067475  31.0181999  29.4275808  14.7050750
  88.4687424  75.2499008  84.0033436  88.5290623  74.9401331  84.9070168
  88.3293915  76.1935949  84.0824223  88.1089783  93.0398369  62.0123959
  87.8014183  93.2609653  62.8914499  88.3119583  92.1055031  62.0576429
  12.9225278  85.4345036  20.6570172  12.6467621  84.5193100  20.7080913
  13.2699263  85.6289101  21.5275073  88.6543274  69.4049263  56.9147825
  89.5688629  69.3387651  57.1895027  88.6327076  68.9902401  56.0523462
  19.3113637  42.0148325  59.1940928  19.5534670  41.3187790  58.5832500
  19.4197011  42.8225279  58.6919832  85.6177521  94.9999046  63.8624620
  86.5226841  94.7327614  64.0236330  85.0894070  94.3016720  64.2491722
 108.4889317  95.1816750  51.4844370 108.1976891  94.4645596  52.0476055
 108.5977554  95.9239960  52.0788717  61.3565826  15.7846856  25.4489017
  62.1024036  15.8436394  26.0459852  61.0704374  14.8734617  25.5123329
 113.1870651  93.0460739  84.7735596 112.3302650  93.2212162  84.3843746
 113.7262058  93.7923336  84.5115280  99.6767330  98.4702778  44.9112988
  99.4620705  98.8708591  44.0688658 100.5438042  98.8142109  45.1260424
  79.9780273  76.2605810  49.1659069  80.8823109  76.1557245  48.8700771
  79.5035553  75.5439377  48.7445688  96.4003372  41.2136316  34.2951107
  96.5460014  40.4055882  34.7871280  96.1490631  41.8561029  34.9586773
 110.9983253  98.6780643  73.1043148 111.6360950  98.7193489  72.3917341
 110.6079388  99.5517349  73.1272602 100.5456829  85.6589031   7.6560521
 100.5467510  85.6862545   8.6128604  99.8809147  86.2977982   7.3989201
  22.8619719  93.4798336   2.9553959  22.1377039  93.5764122   3.5737336
  23.4177136  92.8027534   3.3413273  91.4080143  81.8256283  82.2324467
  90.5342293  81.7913532  82.6217365  91.8885040  81.1164474  82.6595592
 104.3076038  81.1552620  65.4765892 104.2866898  81.6561413  64.6611643
 103.8032436  80.3645992  65.2850151  93.4762001  68.4846258  22.6153064
  93.8419342  68.1586790  21.7929721  92.6808548  67.9680967  22.7451062
  20.9012437  47.4673462  50.5366516  21.8258500  47.2885323  50.7080030
  20.9076786  48.2354832  49.9655485 102.1535301  75.9969139  58.9848709
 101.4263535  76.0627413  59.6038294 101.8294525  76.4183950  58.1889105
   2.9301059  58.8909054  68.3790064   2.3777649  59.4128561  67.7970076
   2.7806109  57.9864359  68.1036520  16.2884974  45.8302307  58.6747456
  16.9057548  45.1428509  58.4242821  16.6447198  46.6269207  58.2815218
  75.3927565  73.9477348  54.0960836  74.4433641  74.0182066  54.1956949
  75.7446527  74.2535973  54.9320555 101.9336224  80.6760406  75.4261589
 101.7719746  80.3505802  74.5406199 102.6236629  80.1075363  75.7680368
 103.8723278  70.0189400  70.6952000 103.1230068  69.8315334  70.1298475
 103.5770130  69.7759390  71.5726805   5.1944935  77.3734856  45.5328512
   5.1828820  77.2997189  46.4871359   6.1114424  77.2390079  45.2933693
 100.5526447  60.4284811  57.0591879 100.6795311  61.2456465  56.5771389
 100.8385849  60.6292248  57.9503489  87.3140049  58.0249977  14.1655409
  87.3542500  57.0712042  14.0955830  86.3780499  58.2255125  14.1704214
  87.5491238 104.1537285  64.0941525  87.4293041 103.3870983  64.6546412
  88.4078789 104.4979954  64.3396044  96.4124966  73.5591221  75.2290678
  96.7889404  73.7267447  76.0930252  95.5928707  73.0990505  75.4100990
  12.4721658  68.3447599  71.1429644  12.0970058  68.9510965  71.7815876
  13.3708501  68.2072639  71.4424467   9.9717319  51.3835096  68.5627747
  10.6245458  51.9212914  68.1146049   9.4229782  51.0369921  67.8591967
  94.8785210  50.1112509  79.7874975  95.8147717  50.2058268  79.9627542
  94.8245716  49.3962145  79.1534281 101.5799904  78.9613914  47.4430895
 101.0057926  79.3302679  48.1142521 101.9286919  78.1626272  47.8388309
  56.9305182  32.6542807   2.3666887  56.6447735  32.8011274   1.4650139
  56.3285780  33.1766725   2.8967857 110.0727558  73.2971525  84.6679211
 109.8135376  74.2162800  84.6027756 109.7539711  73.0186653  85.5264378
   8.2342571  68.5166788  40.1747084   8.7397999  68.3329487  40.9664774
   7.4370795  67.9960918  40.2733469  21.7031074  16.0761487  67.5050449
  21.5855670  16.7602777  66.8459702  21.0599327  15.4064727  67.2724724
  70.0567150  19.9735165   5.5675936  70.6792545  20.5964255   5.1925451
  69.2072725  20.2449679   5.2197462  35.2565384   3.6761856  74.7954369
  35.1239491   3.4323725  73.8793516  35.6487966   2.9000866  75.1954794
  87.2063065  48.2180071  59.8218250  86.7042542  48.9166975  59.4022942
  87.9080391  48.6734390  60.2869940  79.9215126  81.1268425  10.4729295
  79.6021318  81.3946915   9.6112543  80.7041836  81.6594124  10.6144476
  86.7628288  72.5822878  80.1229668  86.2790871  72.0508862  80.7552910
  87.2237110  73.2294321  80.6568336  55.4862404  93.2456970  62.6215744
  55.5939293  93.1755447  61.6730404  56.1419487  93.8892460  62.8901243
  76.4572430  81.7885876  67.2786045  77.1685696  82.1409416  66.7437315
  76.4017677  82.3842335  68.0258417  80.1442719  64.8021841  47.2793579
  80.8225536  64.7396183  46.6068602  80.3899002  64.1437721  47.9292679
  74.2382765  89.2264938  83.8140678  74.9402428  89.8234367  84.0731621
  73.8768959  88.9083195  84.6413517  97.4256611  65.0225782  83.1063271
  98.0657005  64.9028778  82.4047184  97.2331429  64.1350985  83.4088802
  87.4384117  92.3136425  83.0483437  87.2823429  92.8451729  82.2677326
  87.9169846  92.8932476  83.6410141   6.2550581  93.9277077  66.0005093
   7.0579410  94.4446182  65.9340429   6.0805744  93.6399841  65.1044083
  93.2109356  79.4999361  83.3798790  93.7075901  79.3554449  82.5744724
  93.8756371  79.7034264  84.0379047 112.6928711  97.6718616  68.8955498
 111.9052792  97.5865078  68.3582926 113.4129429  97.4662876  68.2993364
 112.0471954  71.8570232  50.9443521 112.9863930  71.9092751  51.1215734
 111.8268394  72.7088070  50.5673313   0.6313618  87.3496246  73.8534546
   0.6949831  87.3704147  74.8083115  -0.0840038  87.9514885  73.6479139
  79.2973423 104.3268108  86.5180874  79.7500229 103.9270210  85.7754707
  79.3195105 103.6566067  87.2011375  84.3290138  63.2994747  50.5943823
  84.6975899  62.4313307  50.4309702  83.9901066  63.5797119  49.7441816
 102.2969151  59.4607878  68.6718750 101.9096947  58.7783766  69.2201567
 103.1520844  59.1107702  68.4220409  26.8102765  34.0581846  91.6779613
  27.4601769  33.5628152  92.1764374  26.6114902  34.8149848  92.2292995
 100.7018280  71.6797161  64.6795511 101.5124321  72.1056700  64.9583340
 100.0107193  72.1545410  65.1412153   0.2597836  90.2112579  59.7986889
  -0.6670455  89.9732113  59.7752047   0.7025070  89.4956303  59.3424988
  28.9251852  91.9204617  51.1171675  29.4369984  92.7286339  51.0834503
  29.4902015  91.2980652  51.5749979  71.6040134  51.0098600  10.7076728
  71.0340929  50.5596828  11.3311815  72.3288107  51.3383436  11.2396491
  58.0221701  80.3705597  54.3819332  57.5544071  79.5383406  54.4514418
  57.4500179  80.9231567  53.8494682 112.1796322  51.0830545  81.0629272
 112.0436478  50.6537819  81.9075966 112.3157215  50.3627825  80.4473591
  11.5930808  77.3875904  65.2023983  12.0175779  76.6217995  65.5891848
  11.8125010  78.1073952  65.7939816  80.4447460  64.9598265  76.4902067
  80.1045036  65.8544302  76.5025377  81.2325096  65.0106239  75.9488344
   6.1987948  83.9842129  53.0448866   6.7687774  83.2612324  52.7828836
   5.4039633  83.8629150  52.5255013  27.6523018  65.5228519  34.3243766
  27.8614902  64.6375322  34.6221662  28.2838392  66.0828733  34.7757840
   7.9563421  94.8303890  43.7121439   8.2219267  94.0979195  44.2681742
   7.0128620  94.9085617  43.8534498 107.3055363  90.5308151  45.4207993
 107.8205681  91.3015366  45.1821518 106.4081097  90.7575703  45.1770163
  94.9258995  81.4420891  47.0453262  94.9467754  81.6493130  46.1110592
  94.3208027  82.0826054  47.4192619  86.0620403 102.0128059  53.9258146
  85.5937958 101.2428284  54.2484999  86.0188866 102.6394844  54.6480608
   3.8704509 103.6392498  90.9623814   2.9951888 103.3207417  91.1830616
   4.0459263 103.2755375  90.0945377  97.3743343  95.2840900  23.5726357
  96.9836330  94.4446659  23.8154292  98.3180904  95.1282215  23.6081553
 106.9975185  78.3247757  77.1756172 106.8624496  77.7597189  76.4148951
 107.5867939  77.8268480  77.7422237  94.4293880  66.9416046  69.0512419
  94.6576118  66.3809395  68.3097553  95.2717018  67.1880245  69.4333601
 110.4126930  45.3222418  82.1725655 109.5386124  45.0350809  82.4366856
 110.7857704  44.5669603  81.7180443   9.6021032  48.2791615  54.0654516
   9.6386558  47.7663708  53.2580233   9.0236288  47.7787971  54.6409845
   9.2505991 105.7506943  89.0018177   8.7754232 106.4485550  88.5507965
   9.6295530 106.1769962  89.7705078  61.4436626  69.4666910  58.2201672
  61.3969231  70.3634501  58.5516453  61.2650967  69.5480347  57.2832918
  43.8806772  78.2919216  44.2899370  43.8844061  77.9277849  45.1751661
  43.6877489  77.5442743  43.7242222  49.1251469  69.2089987  81.1265755
  48.3426428  69.7314262  81.3026047  48.9862728  68.3975840  81.6149998
  20.1049066  91.7596626  68.6784649  21.0017562  91.4805126  68.4941483
  19.5575607  91.0683155  68.3060503  25.5613208  85.5785370  32.4055791
  25.5762053  86.4518547  32.0140100  26.2100768  85.0815296  31.9072485
  38.9355230  88.2818699  71.2945366  39.6867037  88.8019276  71.5800190
  38.7638116  88.5794830  70.4011297 110.6317902  77.4652338  43.3803988
 110.8195972  76.9311619  42.6085663 110.8635807  78.3559561  43.1174946
 100.8731174  93.9674377  68.5373354 100.3280544  93.4270096  67.9654264
 100.5510521  93.7828064  69.4196177  17.5437629  98.9742947  91.5694237
  16.9573474  98.6990356  92.2741127  17.1374714  99.7651672  91.2149143
  96.2247658  77.3729563  77.4398708  96.8173885  77.8815556  76.8863773
  96.8037701  76.8826294  78.0234528  86.3726425  41.0662603   7.7494335
  87.2434902  41.3317204   7.4538261  85.8035946  41.7956400   7.5036091
  79.2363930  50.0701761   5.9127033  80.0887966  50.1281500   6.3443100
  78.8716125  49.2379808   6.2137318  60.6756926  71.1215687  66.5826416
  60.6680489  71.6459084  67.3834181  61.2044430  71.6305304  65.9681368
  69.2475748  80.7256413  24.5670938  68.8002777  79.9120045  24.7997999
  68.6163330  81.4141941  24.7760344  48.9379787 101.5493870   1.5699276
  49.6767664 102.0028210   1.9759105  48.2627106 102.2221661   1.4826412
  70.8783579 101.7223835  56.6690588  71.7583179 101.7627525  57.0435905
  70.8337212 102.4759960  56.0805702 109.8790836  53.2679987  38.0073309
 110.1403236  53.1157970  37.0991373 110.3581524  54.0554094  38.2656121
   7.4874258   2.1949723  64.7438526   6.8704391   2.6285765  64.1543245
   7.0793033   1.3515370  64.9395180  90.6300449  77.9036999   8.2571304
  90.8580780  77.1658134   7.6916593  90.1769924  77.5050116   9.0001172
  94.2054939  82.6988220  56.6291571  94.0717030  83.3711338  57.2972298
  93.3313084  82.5357819  56.2749863  66.2957430  85.3948879  73.8442707
  66.6031027  85.8580399  74.6235371  65.6377077  84.7826481  74.1734934
  83.1345367  41.9576263  22.6950932  83.8509655  42.5855064  22.7885246
  83.3200741  41.2835169  23.3488393  95.9298515  88.8218594  63.9380741
  95.4079437  88.7024593  64.7315359  95.3345585  89.2485237  63.3217764
  92.6999569  58.3220434  53.0757236  92.6652813  57.4848080  52.6130486
  93.5947132  58.6338425  52.9399586  83.1115818  77.1260786  39.0437174
  83.9118385  77.6149464  38.8518262  83.1211472  76.3977051  38.4227347
  48.0858913  14.2856983  93.1224672  48.2982650  14.0580515  92.2173122
  47.5426593  13.5603670  93.4307154  78.6502314  66.8599176  36.0779977
  78.3229828  67.4603128  35.4081774  79.6024561  66.9459534  36.0321712
 101.5481949  68.3920717  83.3394527 101.9635963  67.6351452  83.7526608
 100.8628750  68.6543798  83.9540863 106.0610390  74.9681616  91.2625885
 106.2714386  74.1523123  91.7168522 106.6442966  75.6179571  91.6547871
  18.4789276  74.8736477  80.5043793  18.3357716  74.8821020  79.5579863
  19.2846394  74.3700266  80.6202507   8.0889678  65.2178812  62.4278593
   8.7348604  64.7070122  62.9157782   7.5250381  64.5620632  62.0178366
   8.2232040  88.9443016  69.5618773   9.1368860  89.0293217  69.2894983
   8.2361519  89.1217327  70.5024004  14.3808973   9.2268145  71.1100101
  13.4756255   9.0687203  70.8421993  14.3643939  10.0971651  71.5080643
 108.1116581  77.0474911  61.5411854 108.2167530  76.1510992  61.8600368
 108.7972164  77.1487570  60.8808899  35.6761265  75.7255793  44.8980284
  34.7423649  75.7787514  44.6943235  35.9961700  76.6212273  44.7902393
  97.1615505  90.1959610  60.8237457  96.4825821  90.8479118  60.6499624
  97.9290962  90.7103252  61.0738182 106.5952396  59.0531254  74.7693110
 105.9022617  58.4218502  74.9629641 106.9620895  58.7579393  73.9359331
 113.1824398  70.4232073  76.5882111 113.7083149  70.3359699  75.7931805
 113.8214397  70.4095459  77.3007536   2.4186908  51.1660814  85.5847073
   2.3286009  50.3229094  85.1406670   3.3348829  51.4097023  85.4525280
  95.6704044  74.2316341  45.1458216  96.1739254  74.5165157  45.9084082
  95.0979710  74.9724340  44.9464130  11.1533010  49.5920610  46.1614180
  10.3748047  49.9860954  45.7678270  11.8707979  50.1712561  45.9045887
  59.8904610   7.3524731  88.0824184  60.7259750   7.6289064  87.7059460
  59.6771622   6.5408200  87.6220322  42.9886961  65.9346676  16.9864869
  43.2086134  66.7801571  17.3776555  43.6646938  65.3385496  17.3088241
  92.6307392  87.0913506  87.6341629  92.1611214  87.5051022  88.3583927
  92.4146080  87.6274300  86.8711853 108.0687332  94.8992348  89.6470261
 108.9680958  95.1773739  89.8202991 107.5683022  95.2278328  90.3938961
 108.2143497  41.7925978  53.2896090 107.5689983  42.3400497  52.8423405
 108.0685425  41.9622946  54.2202902  25.5866790  89.6869659  72.4919844
  26.5042543  89.4366264  72.5997639  25.6085086  90.4157734  71.8718243
  92.6751709  39.7719145  54.4288921  92.8000355  39.1214824  53.7378216
  91.8961143  40.2593422  54.1611052  15.9386241  60.1645422  87.1372318
  16.8059421  59.8261213  87.3596382  15.9326601  61.0559177  87.4860096
 100.2369213  49.4063377  81.3988209 101.1534119  49.2073154  81.2073040
 100.2400970  50.3295135  81.6517448 110.8399773  91.1216354  63.9631224
 111.7756271  91.0671329  64.1575766 110.4377365  91.3806343  64.7921896
  58.7536764  89.0505695  61.3465929  58.4239340  88.3897495  61.9555473
  59.3419790  88.5684490  60.7654810  90.9664536  76.3756704  78.3552694
  91.7512035  76.7276955  77.9351711  90.2396297  76.7945099  77.8942537
  87.9615307  98.5944939  71.8325949  87.8793430  98.6070728  70.8790112
  88.8486958  98.9121246  72.0007467  65.2546358  30.7249784   8.0333340
  66.0006189  30.1351714   7.9243708  64.4897032  30.1499057   8.0132967
  76.0848379   7.5717986  60.9127283  76.2088966   8.5126233  60.7874680
  75.1412010   7.4689698  61.0360575  60.7733059  76.7866087  51.3029242
  61.1596918  76.9381380  50.4403830  59.8317432  76.7363644  51.1381054
  13.4094775  94.9075413  54.6023226  12.5772500  95.3354549  54.4010305
  13.5400522  95.0655460  55.5373192  -0.0182009  59.8959923  79.6099520
   0.4668569  59.9511814  80.4333019   0.4297018  59.2110157  79.1135454
  47.7705669  29.4768953  20.4732680  47.6629448  28.5388708  20.6306100
  46.9023275  29.7755313  20.2026892 108.8015747  83.6580372  62.3047638
 107.9826355  84.0542316  62.0070934 109.1387558  84.2687702  62.9601622
  11.7118979  65.4805326  59.0649223  11.9688737  65.0760794  59.8935461
  10.7611895  65.5723000  59.1278744  69.4616652  10.3153062   2.9494005
  68.6622620   9.8483473   2.7062237  70.1691628   9.7084248   2.7317518
  93.5778713  67.3005152  72.8297949  93.3053684  66.6962147  72.1392918
  92.8604412  67.9309988  72.8931761   2.7897084  81.7964840  72.1673155
   2.1637914  81.2482071  71.6941929   2.4222292  82.6788235  72.1155453
  20.3534460   1.5383808  80.5006027  19.8480833   0.7289357  80.4255104
  20.7499242   1.6541812  79.6371031 105.3383255  51.1366606  78.2157660
 105.5713272  51.4139700  79.1017914 105.9281158  50.4058218  78.0306578
  78.4849691  40.2580643  15.4073870  79.4320965  40.1659679  15.5108607
  78.1140089  39.6398258  16.0369921   5.1730376  60.2459621  74.2394257
   5.6158262  59.5430660  73.7639189   5.1794028  60.9864521  73.6329031
  99.1934490  91.5484238  61.5349483  98.8377380  91.5571404  62.4235535
 100.0385284  91.9914818  61.6108894   1.3024327  77.3708153  62.1341515
   0.6756853  76.8650532  61.6168261   1.6215372  78.0437374  61.5328360
  24.2086601  68.4953737  55.7665062  23.5044026  68.8941956  56.2775755
  24.2665076  69.0339708  54.9773312   5.9216285  88.1180763  36.3611388
   6.1369336  87.2041512  36.5472221   6.2836832  88.2767200  35.4893708
  69.6067953  94.1164303  29.5986414  69.8722506  93.3743000  29.0554857
  70.2270508  94.1136360  30.3276849  94.5000553  87.1046638  69.3559837
  93.8410187  86.9044495  70.0206804  94.3271828  88.0144119  69.1136980
   0.0823833   5.8894932  37.8599334  -0.3337934   6.2041599  37.0574284
   0.3467824   4.9922657  37.6566887  93.9847946  81.1013889  59.9095440
  94.7396183  80.6839657  59.4945192  93.7146378  81.7786503  59.2894173
   4.0490246  88.9196491  72.5840664   4.4191986  89.2541885  71.7671967
   3.8764805  89.7024918  73.1071472   6.6538125  81.3291836  78.9322281
   6.5792269  81.1029625  78.0051374   7.4085695  80.8280087  79.2410898
 111.8740463  61.7241526  43.5024500 111.6796017  61.9597530  44.4095945
 111.1678982  61.1279392  43.2532072  67.9805374  77.0388460  14.1690040
  67.4786377  76.6004229  14.8561096  67.3696136  77.1119833  13.4357548
 113.1906986  82.9924202  53.7248230 113.4537983  83.6218643  54.3962479
 113.8745785  82.3229408  53.7430000  13.5531306  76.4359570  67.2269297
  13.4351349  75.9681511  68.0536509  14.2414749  77.0754814  67.4097443
  63.1688452  20.5158687  89.5608330  63.4134340  21.0335517  90.3279114
  63.7857342  19.7839677  89.5592022 112.4098396 102.7150154  83.5944176
 112.0779705 102.5255013  84.4720173 112.3123837 103.6626434  83.5009575
  93.0015945  66.6343212  66.3873243  92.4567890  66.6326857  67.1743536
  93.6144543  65.9108877  66.5187645  84.4179726  81.2208748  81.3465500
  84.3834686  81.5862751  80.4625130  83.8157845  81.7648220  81.8542099
 107.5351810  93.5087299  79.8151350 107.5314045  93.0221081  78.9908695
 107.5371170  94.4285488  79.5502281  73.9501143  84.8308372  54.5770645
  73.2384920  84.2544174  54.2985678  74.7473240  84.3367004  54.3859625
  68.0339289  20.6093502   4.0170273  68.4105730  21.3290381   3.5106453
  67.2245932  20.3896642   3.5555679 106.8698311  95.8596897  65.4508638
 106.9558907  96.8107033  65.3845787 106.2294865  95.7252598  66.1495113
   5.0947207  65.0618792  92.1034336   4.8336589  65.9792280  92.0224667
   5.0321662  64.7155857  91.2132645 102.1050453   3.1496200  65.2469301
 101.6947269   3.1016433  64.3834686 101.4199066   2.8689969  65.8536148
  58.6337900  99.1203403  71.0170984  58.2870865  98.4155083  71.5641308
  58.6098051  98.7671757  70.1277542 111.9374466  72.1369886  35.0536060
 111.5547752  71.2962961  35.3046584 111.6327572  72.2808361  34.1576719
   8.0616486  82.9245663  26.6400409   8.0444980  83.8578224  26.8520784
   7.1478236  82.7027225  26.4613199  17.0272839  81.6644764  66.9320583
  16.5607214  82.3532772  67.4054432  17.5783217  82.1348190  66.3064671
  94.0041447  71.5002632  69.1670132  94.7550297  72.0864534  69.0732813
  94.2097282  70.9687996  69.9361134 103.4003067  56.3914442  65.4996204
 104.2423916  56.4572096  65.9499598 103.0148697  57.2635460  65.5839205
  64.2457056 102.1888065  42.2322893  64.7326422 102.0932674  41.4137554
  64.7753716 101.7259502  42.8814888  16.1103714  88.3952522  35.6814194
  16.2874782  88.9668846  36.4284801  16.8709719  87.8157711  35.6376266
  90.4598618 100.0232506  67.1608734  91.2273502 100.1055622  67.7269316
  90.7260609  99.3991470  66.4856958  15.3880930  18.6536145  84.8613358
  14.4412076  18.6839950  84.7245216  15.7099175  19.4761181  84.4923592
  71.8071842  54.2355633  85.6955433  71.3585091  54.9933338  86.0706615
  71.5663767  53.5071039  86.2679100  89.1133881  64.5371819  66.0073519
  88.5425472  64.2119837  65.3112125  89.4927311  65.3402758  65.6504536
 104.0826893  59.8161793  72.4111176 104.9810505  60.1209402  72.5387859
 104.1314316  58.8682938  72.5351095  24.9369574  57.9797745  71.8364859
  25.0645041  57.1101952  72.2156954  24.1819549  57.8798199  71.2566471
   0.8750526  85.8760548  42.9708910   1.4581582  85.1944351  42.6368093
   1.0082132  86.6164207  42.3789883   7.7611876  50.0504875  86.2115097
   7.2619206  50.2925825  86.9914722   8.6561221  49.9282932  86.5283585
  21.6646886  58.0557728  82.1019268  20.8790922  58.4464598  81.7192554
  22.2527122  57.9230833  81.3583851 109.1445923  91.8614292  59.8202991
 109.4177246  90.9445763  59.7883797 109.4296741  92.1664238  60.6816578
  56.5834141   4.7554991  65.1677561  56.0479736   4.4668001  65.9068012
  57.4083471   5.0353140  65.5645132  60.7768712  64.6475228   0.6103620
  60.6900749  64.8616751  -0.3185359  60.0588426  64.0387996   0.7839212
   9.6465129  39.9474764  14.9744308   9.5328981  40.2029133  15.8898962
   9.1670704  40.6116295  14.4791842  86.9858074 102.3221779  76.3681889
  87.1294212 102.1722603  75.4337740  86.4807892 103.1344509  76.4056063
 100.4286671  78.1161833  86.8634129  99.9722767  78.1040573  87.7047157
 101.2963581  78.4655333  87.0666409  13.6076498  71.1594629  43.1212997
  14.5225108  70.9865570  42.8991222  13.1061733  70.6676960  42.4709797
   2.0852645 100.3078938  72.3248577   1.5521465  99.5250607  72.4633837
   2.1700940 100.3746891  71.3737679 106.5477848  65.2804232  74.6585178
 106.7266464  64.7055721  75.4026842 106.4231205  66.1455536  75.0486994
   5.6382066  72.4658680  26.1964869   5.7854831  73.4043789  26.0792708
   5.9454465  72.0714283  25.3802419 114.0875739  71.8045473  66.1627197
 113.1844646  72.0119858  65.9227276 114.1251747  70.8481741  66.1498642
  74.4297743  58.1946564  62.9511356  75.0066662  58.9583778  62.9636002
  74.1351223  58.1022501  63.8571596  23.8988233  68.2858562  77.4965572
  23.4130001  69.0050459  77.0928574  24.4578719  68.7101126  78.1474876
  97.0760250  64.0471172  32.9152083  97.3043156  64.8386049  33.4027123
  96.1701393  63.8648939  33.1649899  96.5894318  71.3801956  81.0317230
  97.0367050  70.6642914  80.5804348  97.0659828  72.1663141  80.7649803
  36.2326622  89.3021202  62.7464724  35.3932691  89.0389919  63.1238508
  36.3437772  90.2124119  63.0208158  67.6250648  77.7046108  60.5118132
  67.4107504  78.2574320  59.7603512  67.2346687  78.1559134  61.2602425
 106.3729668  61.4669371  70.7691431 106.6467857  62.0063496  70.0273323
 105.4453087  61.2932205  70.6094551  61.4717865  22.5675130   8.9654565
  60.6328344  22.5873899   9.4258910  61.3818502  23.2246494   8.2752991
  92.2334099  70.0245762  83.2508850  92.9896641  70.5664110  83.4761047
  91.5950489  70.6413364  82.8926373  11.0576737 103.5340691  83.1287384
  11.8954754 103.0861378  83.0117989  11.2400174 104.2189884  83.7720776
  31.8671227   4.5430106  92.7372456  32.4867702   4.6643230  92.0178318
  32.3874831   4.1497284  93.4378052 104.9705410 106.7308426  87.4273682
 105.1720238 106.0640526  88.0838871 104.1089058 107.0627308  87.6796722
  41.6335297  38.1207871  92.4267864  40.9316158  38.1678247  91.7776775
  41.4548302  37.3170614  92.9149723   0.7652569  97.5662994  75.7276440
   1.0769378  97.5975037  74.8231459   0.0283831  96.9557381  75.7061243
  76.6115570  77.5059795  57.9740095  77.3903275  77.8227854  57.5164223
  76.7873383  77.6845741  58.8978291  90.8970547  22.6504540  45.7047319
  90.8164406  22.8403616  44.7700310  90.8744621  23.5094357  46.1264801
  38.2166243   5.6702018  85.7383442  37.5534773   5.3948355  86.3712978
  39.0482354   5.4086584  86.1336231   6.1625755  83.0144882  48.3705091
   6.3440770  83.9200687  48.1190681   5.7812810  82.6199627  47.5861645
  28.6194849 100.7595348  44.1789484  28.2726073 100.2118587  44.8831940
  27.8457046 101.1646938  43.7873650  22.1131921   2.7345240  68.7902069
  21.8649507   3.4840429  69.3313456  22.0030069   3.0418032  67.8903913
  11.3003647  83.1543350  76.8675232  10.5188465  83.1783390  77.4196863
  12.0299637  83.2392979  77.4812841  15.9362650  66.3855886  70.5501890
  15.5069757  67.1191406  70.9904671  16.8583059  66.6388893  70.5064726
  65.8837366  46.1821222   3.1712872  66.0363865  46.8712091   2.5246871
  66.0368443  46.6072893   4.0151009  57.1992826   3.5856339  58.5508776
  57.6714420   3.3091050  59.3362617  56.4016914   3.0564088  58.5521317
  84.4572449  83.2753086  37.4842596  83.9807510  83.2629204  36.6541767
  84.8795986  82.4175930  37.5308061  16.4761853  68.9934969  87.1973228
  16.4497840  68.1613779  87.6696682  17.1494508  68.8680458  86.5285873
  21.6955686  81.8225861  32.0359778  22.3771572  82.4933624  31.9945383
  20.9439564  82.2686291  32.4263000  30.8054948  81.8990803  51.3656521
  29.9377060  82.2898579  51.4679432  30.8649254  81.2587738  52.0746756
  16.8382859   6.7580533  41.3174248  16.3372707   6.0981590  41.7967510
  16.8098485   7.5338292  41.8774223  10.3786135  76.5444708  57.3272800
  10.6391752  76.1186218  58.1439781  11.0347140  76.2621784  56.6900444
  16.1146677  81.1607838  83.9071560  15.6512034  80.3494644  84.1149807
  15.7869482  81.4091587  83.0427837  19.2584980  94.8252010  63.7068701
  20.1888895  95.0046062  63.8425827  19.2400455  94.1722775  63.0071735
   8.2779133  72.3109627  49.8341417   8.6419976  72.6920223  50.6331825
   8.6975664  71.4534473  49.7649527 100.5015564 103.8544941  57.0184135
 101.0091400 104.3803692  56.4003134  99.5970249 104.1397381  56.8892193
  45.8875561   9.8030257  85.6420517  46.2910414   9.9902725  84.7944832
  46.0564661  10.5861151  86.1659622 104.7018814  88.6733723  73.0745935
 105.4138279  89.0924549  72.5911283 104.5048237  89.2822552  73.7863970
 106.7803574 105.1504135  75.3225946 107.4234676 105.6404400  74.8102283
 106.0233784 105.0693607  74.7423935  42.2195911  23.2801414  46.5793371
  41.5334892  22.9646993  45.9911251  42.1053696  22.7655172  47.3783016
  55.7335520  58.9189148   0.3514292  54.9107075  59.4017220   0.2735991
  55.5741835  58.0975103  -0.1134695  14.7746682  86.2315369  44.8669100
  15.2924871  86.2549114  45.6716108  14.1940033  85.4786682  44.9775219
 112.7521324 106.2627029  39.6078777 112.9650974 106.1962032  38.6770415
 111.8068314 106.4119053  39.6272397  99.7637177  81.7104530  86.2068844
 100.5088806  81.8226719  86.7971134  99.0502071  81.4192486  86.7746258
  79.6289825  58.2204580   2.6237527  79.7764111  57.4220800   2.1167128
  78.9970064  57.9643059   3.2954842   4.3313435  54.8934364  88.9067936
   4.3447214  53.9369726  88.8717937   3.7495154  55.0982046  89.6387577
 104.2795944  96.8687725  75.8174515 103.5639477  97.5011921  75.7531881
 104.6925354  96.8858147  74.9540710  89.1163635  91.1450481  72.2246695
  89.9085712  91.4074516  71.7558527  89.2303085  91.5014362  73.1057072
  70.4498053  27.6989722  39.7499824  70.5727530  28.1365705  38.9075899
  70.1386786  28.3894229  40.3353977   2.5846323  75.9381819  64.5416689
   1.8999183  76.5657091  64.3101454   3.3910817  76.3284492  64.2046785
 111.1707973  65.5366755  56.1887884 110.5088043  66.1808872  56.4397573
 110.6843853  64.8697329  55.7042074  80.3687191  45.3168106   3.3482748
  80.8333874  44.8839474   4.0644777  80.7657433  44.9588633   2.5542468
  82.2322178  71.3595867  50.0312805  81.5028858  71.5694571  50.6145954
  81.9686317  71.7128229  49.1815853   3.6858186  91.5349007  63.0577135
   3.1193402  90.8726883  62.6617146   3.2987076  92.3697662  62.7943134
  99.1799164 104.5420456  82.7958775  98.5279465 104.3975258  83.4816551
  98.6675835 104.6214962  81.9912434  95.5692291  72.9347324   2.9008389
  94.8235416  72.3373556   2.9585311  95.3305435  73.5494566   2.2070263
  99.4708061  95.0651455  41.9665813  98.6526489  94.8301792  41.5288067
 100.1565647  94.7535801  41.3759136   2.8576440  82.6649284  63.6268044
   2.0709202  82.2092724  63.9262581   3.4941837  82.5304699  64.3289185
  19.2326868   3.1763011  91.5797901  19.7580028   3.6733472  90.9527206
  19.5191717   2.2699705  91.4669991  48.7213945  23.8672781  13.7159252
  48.5830688  23.0080748  13.3173394  49.6721315  23.9781570  13.7221467
  23.3570385  11.5064764  85.0316906  23.6586189  11.2125385  85.8912754
  22.9817581  12.3722005  85.1926804  49.2387247  14.8281479   1.2277740
  49.4802999  15.4333758   1.9288968  49.2562628  15.3622866   0.4336583
  12.3561192  13.6208940  69.6818447  11.9448662  13.7898529  68.8341665
  12.4629712  12.6701212  69.7109556  25.8420277   9.3771094  61.5341759
  25.3268933   9.0379441  62.2661829  26.6376615   9.7210574  61.9402552
  23.4014702  55.4755735  91.0403442  22.6085043  55.0485325  90.7161999
  24.1144967  54.9028015  90.7579327   1.2955873  94.1625786  56.9577360
   1.9367333  93.8878822  56.3022184   1.6690421  93.8781738  57.7919292
  34.8940563  25.9694242  18.8939536  35.1346111  26.2789273  19.7672069
  34.2282867  26.5889072  18.5952532 112.4049282  89.5779705  77.3073244
 112.5817680  90.5019188  77.1304989 111.5145779  89.5674801  77.6586056
 109.1936684  96.3900185  81.8030167 108.2998466  96.1192226  82.0127583
 109.5430946  95.6731987  81.2735844  15.8383620  94.4982529  92.3264694
  16.5408397  94.6628284  92.9554939  15.3612876  93.7522602  92.6899719
  72.5148439  74.8095751  79.3715668  73.1069899  74.4678164  80.0414944
  73.0524111  75.4180527  78.8646078  68.4039736  91.4053535  71.3759232
  67.6389980  90.8852768  71.1298084  68.7526083  91.7268372  70.5444574
  23.0382442  52.8887606  74.1629696  22.6693678  53.7403727  74.3973112
  22.3965359  52.2539473  74.4814920  34.2201805  25.6698442  41.3200855
  34.9755502  25.6007171  40.7362461  33.6238718  26.2685204  40.8703756
  83.8152695   6.2386090  78.2176685  84.1529846   7.1203786  78.3747196
  82.9103184   6.2699282  78.5279942  81.3056946   8.8130534  65.8902550
  81.9771290   9.1321957  66.4932108  81.4847469   7.8765011  65.8063459
  62.3950815  11.2365472  56.6080570  62.7959299  11.1931586  57.4762011
  62.1445942  10.3332114  56.4144850 109.9826813 104.8440075  73.9906216
 110.5663109 104.1059780  73.8147783 110.5524921 105.6125259  73.9601135
 110.0162601  59.9511290  89.9544144 109.5567226  60.7441044  89.6782875
 109.5086861  59.2349577  89.5727062  51.5524292  13.8087106  29.1811848
  51.1979485  13.0972230  29.7144389  50.7817459  14.2283201  28.7988091
  83.0919266  89.4417095  83.9695549  83.8541698  89.2167664  84.5030499
  82.6597595  88.6038208  83.8039970  75.1208687  21.8239713  48.1701946
  75.8138466  21.7040348  48.8195181  74.3434620  22.0374632  48.6862230
   3.4066540  90.5570602  68.6471510   3.9634642  90.5401516  69.4255543
   3.9275590  90.1244164  67.9706097  79.9082947  13.5298479  81.3748169
  79.1728735  13.6813796  80.7811642  80.5645561  13.0887043  80.8354187
  30.0689960 101.3105106  46.5993929  30.8040595 101.9220352  46.5552139
  29.7541022 101.2489700  45.6975651  59.2514038  30.6112528  57.0972347
  59.3439102  31.3777709  56.5314436  59.0345478  29.8964858  56.4986420
   7.0917463 104.4002151  79.7340679   6.2413746 103.9629364  79.6905947
   7.5786263 103.9116859  80.3977871  97.3112106  50.4210281   7.4047732
  98.0349922  51.0404301   7.4981058  96.7823124  50.7765484   6.6905624
  88.1633663   2.7551106  69.1366196  87.9097271   3.3299923  68.4145308
  88.5319328   3.3449510  69.7942495  92.0407200  25.2938581  46.7533350
  91.9396877  26.0131288  46.1298990  92.9633236  25.3241634  47.0065308
  70.9612989   7.8420955  50.5894661  71.1684847   7.1467823  49.9650908
  70.0475883   7.6854777  50.8278704  25.8028173  83.9735889  76.3986063
  25.1174283  83.6371994  75.8212662  25.7612133  84.9238586  76.2914276
  43.5201454  75.6749296  54.1460848  43.7460566  74.8131084  54.4960260
  43.3289433  75.5155325  53.2218170  37.9251838  21.0735893  85.9438896
  37.0636272  21.4067292  86.1948299  38.1619287  21.5819812  85.1681805
  93.1985569  57.9142809  83.5723782  93.3672237  58.5097694  84.3025684
  93.6703205  58.3004904  82.8344727  62.1332121   6.1211765  74.9853563
  61.4943075   5.5693072  75.4364347  62.5273228   6.6483760  75.6803179
  80.1128006   8.0290842  58.8724661  80.6800365   8.5503191  59.4406128
  79.4882584   8.6596793  58.5139513 113.4602261  97.3337746  60.5082369
 112.8920174  97.5837135  61.2368679 112.9203796  97.4627018  59.7283792
  42.8019619  94.0781593  42.2688150  43.5552645  93.9606190  41.6900635
  42.8204346  95.0067425  42.5004005  50.5451345  98.5698318  64.3507099
  50.6463194  99.2681026  64.9975634  50.0768805  97.8773689  64.8170424
  56.9027424   2.8930387  52.6428747  57.0113802   2.4251445  51.8149233
  57.2361231   2.2879884  53.3054495  26.6837454   4.0393367  29.2431331
  25.8046985   4.1162738  29.6140599  26.5833688   3.4271803  28.5141468
  37.7044821  21.6552353  19.8223710  37.5550389  22.5710487  19.5874572
  38.0164599  21.2484598  19.0140176  86.5135288   2.6214767  82.7851677
  85.5941200   2.8234673  82.9587364  86.9215393   2.5998068  83.6507797
  95.4249287   2.9132321  42.9380083  96.3444805   3.1583500  42.8351545
  95.1056004   2.8002006  42.0427513  30.1548719  99.6363640  52.5766325
  29.3579769  99.2522430  52.9421997  30.4326487 100.2785683  53.2298231
  81.7521954   3.7077823  10.4916525  80.9458065   4.0038073  10.9139574
  82.4331856   4.2769659  10.8501363  44.1999388   5.2009207  44.4953966
  44.1386414   4.3426871  44.0759802  44.9935627   5.5906183  44.1286087
  37.5014758  73.8863564  66.3242579  36.9752717  73.5609770  67.0546484
  37.0758891  73.5293627  65.5447292  34.3024802  72.7321291  73.5052681
  35.0302315  72.7976608  72.8869486  34.3105650  73.5666609  73.9740086
  17.2386312  84.8263836  59.1858482  17.6688182  85.6072330  59.5343447
  17.6050377  84.1035652  59.6952677  56.3536596   0.3728407  26.9748378
  55.4622889   0.6800942  26.8096375  56.5234327   0.6094614  27.8866577
  58.4208202   2.0692560  66.7176199  58.5330915   1.1539524  66.9742203
  57.6413822   2.3573188  67.1927261  39.8354268   3.3827165  48.4193993
  40.1823092   4.0861076  47.8706312  40.3467751   3.4345967  49.2269039
  56.6423225   5.9130925  40.1444387  57.1063900   6.4981872  40.7432222
  55.7970810   6.3387078  40.0007534  29.4703245  96.3901043  31.0973120
  29.3224812  96.9507599  31.8589163  28.5942960  96.2214851  30.7503653
  54.0951347  18.2196558  75.4730320  53.5602570  17.7902663  76.1406851
  53.5119009  18.8689518  75.0799847  56.7714739  96.9923782  49.0971088
  56.8902826  97.8943253  49.3947887  57.6601410  96.6723347  48.9419508
   8.9525437  91.0752010  85.6677818   9.4003457  90.9161377  86.4986897
   8.0677199  90.7363796  85.8038616  53.6808634  20.9092283  77.8319263
  54.4507980  20.3940582  77.5910282  53.9966822  21.8123388  77.8616667
  65.8200073  23.9202309  68.0742884  64.8770428  23.8373303  67.9322529
  66.1787176  24.0958881  67.2044039  81.0004807  22.1321011  76.0499334
  81.1179161  21.3329601  75.5363035  81.8765354  22.3381853  76.3759565
  69.5603561   2.5550932  56.1221600  68.8507271   2.3396608  56.7273474
  70.3409100   2.5995401  56.6744137  48.1495667  -0.2710621  68.8278866
  48.8614702   0.0948755  68.3029938  47.6321173   0.4893357  69.0929747
  42.3191929 104.3385410  15.7712877  42.4924231 105.2797031  15.7921672
  42.0063543 104.1722584  14.8820674  55.9042311   1.3581470  37.4561214
  56.7646456   1.2545606  37.0496821  55.9266138   0.7763103  38.2158566
  55.2339649  27.6047492  72.5349188  54.3914890  27.8073525  72.1282101
  55.5365896  26.8187046  72.0801830  55.5603838  71.8150616  77.9011536
  55.7476711  71.1257982  77.2639179  54.8850489  72.3499155  77.4839115
   6.6428584  75.9988832  60.8897781   5.8285481  76.4089394  61.1812973
   6.7612475  76.3123322  59.9931383  76.9618559  23.5907149  75.9492445
  76.0634327  23.4383011  75.6562710  76.8670273  24.0094638  76.8047476
  11.4646065   9.5722640  35.0699854  12.2600746   9.5763344  35.6023812
  11.1845958  10.4873896  35.0507402  52.9131269  13.7337220  46.2783146
  52.7411795  14.4332945  45.6480217  53.5577774  14.1063738  46.8798018
 109.6042061  97.6320457  48.9206266 109.0579796  98.0981922  48.2877159
 110.4794121  97.6395798  48.5330677  57.4179935  16.0366058  69.8705912
  57.2261906  15.7777297  68.9692450  58.2460833  15.6015778  70.0736761
  34.7510958  16.1572254  36.2422276  34.6923256  17.1124005  36.2217832
  34.7423172  15.8969522  35.3211331   3.5304773 103.5631561  18.5464668
   2.8516939 102.9038334  18.6906374   3.6912590 103.5390854  17.6031733
 101.9730377 105.3025627  55.1462221 102.2682190 106.1905766  55.3475475
 102.7753639 104.8259830  54.9331999  60.1101065  15.6439269  39.4810581
  60.6679058  16.2921941  39.0511227  59.3307734  16.1343026  39.7425890
  34.7066140   8.0731148  79.6228981  35.1411128   8.1539261  78.7738323
  35.2762628   8.5462141  80.2294540  35.5731320  95.9717846  77.4499273
  35.7022691  95.1898766  76.9131041  34.7656250  96.3616085  77.1149540
  56.6249418   1.1562790  29.5094442  56.2216806   2.0243663  29.5031452
  56.3180876   0.7555393  30.3227615  78.8010693  10.1069355  76.0118103
  78.8110924   9.8593509  76.9363832  78.2297611  10.8740854  75.9754658
  18.5132456  66.0232925  86.6964722  19.0052080  65.3174400  86.2769699
  18.5899532  66.7611027  86.0915089  43.5790634  64.4722462  53.2135868
  43.1610394  65.2772713  52.9079485  43.7884474  63.9920330  52.4124718
  14.0914559 101.3525486  39.2856550  13.4459591 101.8552208  38.7887788
  13.6345696 100.5461407  39.5247865  29.0268588  88.7049484  38.0268526
  28.1417418  89.0304184  38.1907725  29.0287685  87.8209019  38.3938527
  60.7746792  18.9211476  71.3682508  60.2707005  19.7159600  71.1935759
  61.4923620  19.2114806  71.9311619  44.8152065 101.1206722  66.2814093
  44.5046234 101.9779491  65.9901190  45.0634336 100.6690788  65.4747629
  78.4976149  19.0491605  46.9208097  77.5566721  19.0163672  47.0933771
  78.5687923  19.4574153  46.0579681  85.7475567   6.7273605  67.6454782
  85.0012684   7.2856921  67.4274254  86.0384464   7.0400995  68.5021114
 113.7951756  97.1514034  81.5975571 113.2099152  97.7430820  81.1246872
 113.2462502  96.7673683  82.2812462  30.4973936 107.1427631  56.7466259
  31.2297297 106.5896797  56.4745903  30.6855845 107.3570347  57.6603603
  48.6248064  94.1474819  71.1633968  48.4469938  93.2102966  71.2427521
  48.0196571  94.4495678  70.4860687  75.9707642   5.1519817  59.3783045
  76.6714001   5.5154508  58.8367987  75.7666922   5.8469355  60.0041056
  76.0701656   1.1905765  56.1461306  75.9574318   0.5999627  55.4013491
  76.8507099   1.7011371  55.9309292  23.7002182  89.2433453  74.5685720
  23.0299902  89.7321701  74.0909958  24.5076299  89.4043636  74.0803146
  92.0560360   5.9323579  37.2767043  92.4457359   5.9891188  38.1491399
  92.7061653   5.4628795  36.7540646  53.0676508  92.5007248  66.9707346
  53.6960936  92.4743843  66.2492085  53.4995747  92.0275974  67.6819468
  68.6478662  34.6946239  71.5445375  68.6753082  34.9497461  70.6223679
  69.4909143  34.9796152  71.8970776  55.9706306  22.6388407  55.8720636
  55.8175707  23.4948611  56.2721062  55.1123524  22.2151017  55.8773136
 109.1259575  25.0072122  84.1942310 109.9674225  25.3669596  84.4748592
 108.7592316  24.6111059  84.9847031  48.2011223  40.3658438  18.7363601
  48.9232206  40.0234652  18.2094955  47.4128485  40.0323153  18.3078599
  57.3346567  18.9946902  89.1265583  56.8659353  18.4664464  89.7726917
  56.8580198  18.8515019  88.3089161  13.0835342 104.2707443  72.3577213
  12.5114906 104.9346828  71.9727755  12.6104510 103.9669991  73.1324196
  79.7025824  20.1877308  52.1684885  79.6107817  19.4545233  52.7769423
  80.6105232  20.1385331  51.8693972  89.8380661  24.2485046  71.2188721
  89.3739223  24.8061109  70.5944777  89.1580868  23.6853290  71.5885830
  83.2628536  47.0195627  74.4559574  83.1323528  47.9459667  74.6583986
  83.6634922  46.6559696  75.2455902  46.1180925 103.1047535  84.1776848
  45.8273506 102.2518158  83.8548946  46.3925076 102.9386997  85.0795460
   2.4517488  20.7143474  46.1767960   2.2948553  21.4802527  46.7290640
   3.1877419  20.2656651  46.5930033  60.3816652   5.5877233  29.5315814
  60.8091784   5.9413964  30.3115678  60.3139019   6.3342351  28.9363003
  49.3605375  76.3412142  63.9028311  50.2640390  76.3854408  64.2158175
  49.2605972  77.1157742  63.3493900  69.3605185  15.5332732  60.1413774
  68.6824179  16.1192536  59.8051691  68.9636135  14.6629250  60.1068687
  20.3232479  28.4299731  52.6799679  20.7996035  29.0616250  52.1411419
  19.9558270  28.9523315  53.3929729  46.0698032  90.6905460  58.2412815
  45.3509378  90.0689602  58.1268644  45.6785917  91.5451622  58.0600929
  76.8668461  22.6531744  36.8689847  76.3883781  22.6026773  36.0414886
  77.7833319  22.5258398  36.6238904  73.6531591  24.9415874  66.1863804
  73.8153505  25.4719996  65.4062605  72.7665710  25.1794887  66.4576817
   5.1664352  68.4219885  18.4650052   5.5650210  67.6686907  18.0292189
   4.2423704  68.3797407  18.2189322  82.9846668  76.3767910  16.7588496
  83.5110092  77.0036983  16.2626767  82.1292591  76.3894653  16.3294971
  43.5786867   3.7338012  47.5413990  44.1708612   4.2731237  47.0172882
  42.9377937   4.3526164  47.8914833  88.0555344  73.3622456  27.0189309
  88.3119392  74.2683506  26.8472838  88.2406330  72.9017973  26.2004256
  41.7934036   9.7386289  38.2521701  42.5752640   9.3146944  38.6060143
  42.0387506  10.6598067  38.1657696  80.5834389  62.3110867   3.4279788
  80.9234810  63.0021477   2.8596169  80.7319260  62.6364946   4.3158394
  91.3068199  12.8427207  58.1148672  91.5826797  12.4615908  58.9484549
  90.4488087  12.4535251  57.9458284  70.9776068  16.2591588  34.4213009
  71.4392138  17.0739818  34.2232704  71.3895321  15.6067574  33.8548017
  25.9014416  86.3214874  29.4827247  26.3015318  87.1669006  29.2791700
  26.4416504  85.6826687  29.0176249  83.5095692  26.4211106  72.4212360
  83.4892654  27.3431683  72.1650457  84.0892601  26.0075164  71.7816019
  87.9654026  25.4504752  51.0744476  88.4177208  25.3961682  51.9162846
  88.6560631  25.6555629  50.4442501  47.7744961  14.9415278  71.7858839
  48.0014277  14.8510790  70.8603811  48.2710028  14.2496610  72.2229576
  20.1612782  88.9790821  69.5541716  20.5082273  88.1469250  69.2326593
  19.3884826  89.1413975  69.0131807  41.8360853  21.8306422  48.8398457
  41.5868282  20.9689784  48.5057259  42.3233938  21.6445327  49.6424198
  72.0623112  14.6861911  68.9310312  72.0919275  13.9929569  68.2716513
  72.2133923  14.2339158  69.7610044  71.8270063  11.4222968  44.9602509
  71.6236877  12.2952664  44.6243668  72.7834749  11.3862705  44.9702024
  39.1537499  84.2702007  25.8214259  39.5553350  85.1091480  25.5952811
  39.8191977  83.8182354  26.3402081  68.0952930  16.2351143  67.0114136
  68.0421448  16.8830478  67.7139711  68.9071703  16.4472377  66.5508747
  85.7042885  20.4940891  64.6082687  86.4587212  20.5481696  64.0216303
  84.9451447  20.5542874  64.0283489  36.7098618  86.9352150  41.1888647
  37.3800302  87.1292973  41.8441772  35.8962941  86.8732738  41.6893673
  87.4191284  26.0778713  84.8544025  87.6684189  25.4398417  84.1858196
  87.8849983  25.7947612  85.6411934  69.0534401  36.3936806  75.4743004
  70.0092459  36.4442611  75.4846907  68.7831259  37.0917153  74.8777199
 107.2242355  28.0480194  65.5546856 107.7414417  28.3527660  64.8091221
 107.4541378  28.6458325  66.2660217 104.3809319   7.7405107  67.2280884
 103.8960266   8.0334961  66.4565611 104.1626930   6.8121153  67.3098516
  68.7757826  21.2100029  42.3813391  69.2892027  20.6846714  42.9950619
  68.7375450  22.0780897  42.7828264  43.9885759  97.0432281  64.4498634
  43.6109400  97.8689861  64.7527599  43.4307814  96.7788410  63.7182903
  52.5322104  25.5424905  66.5648842  53.4856415  25.5563927  66.4811707
  52.2289896  26.2221408  65.9629202   7.6536423  89.3256474  16.1376286
   7.7684921  90.2736187  16.2038898   6.7112350  89.1909981  16.2374830
  85.4049492  33.7832761  33.5314655  85.9852314  34.4526649  33.1689286
  85.6787014  32.9718614  33.1037974  56.2297153  18.4645379  70.1797771
  55.3798819  18.3708107  69.7493935  56.6047764  17.5840271  70.1636267
  96.5641880  28.0793619  34.1705608  97.0587158  28.3531451  34.9430346
  96.7912769  27.1566415  34.0554309  33.3318663  98.5930634  69.0548086
  33.5673451  99.5207405  69.0412760  32.4072909  98.5770130  68.8075590
  87.2468185  96.8170452  74.5239687  86.3589191  97.1736240  74.4970703
  87.6453495  97.1045303  73.7025356   4.6480873 105.3872681  27.4973035
   4.2918801 106.1874866  27.8833079   3.8810065 104.8391628  27.3317623
  64.8147821 107.0362186  24.8209429  65.6236315 106.7171764  25.2211976
  64.5832109 106.3638687  24.1801977  81.0041142  14.7854757  63.1837988
  80.6678486  14.9109459  64.0711641  81.7558956  15.3752446  63.1269360
  14.2765617  95.7989693  48.3431149  14.0283501  95.2662659  47.5875711
  13.4895039  96.3030434  48.5497189  33.9875221 104.5210361  43.5053873
  33.9412212 104.7753239  44.4270277  33.4657240 103.7203884  43.4513283
  75.5904818  30.6565404  14.8068810  74.7401571  30.6133699  15.2442765
  75.6206465  31.5350795  14.4280791  79.2838764  10.5108535  66.8116665
  79.9285698  10.0303471  66.2923241  79.0938044   9.9336380  67.5512123
  27.2521567  93.3879662  76.4566946  27.5642347  92.4836445  76.4242172
  28.0501270  93.9165401  76.4655876  51.3942146   3.6022985  27.0400095
  50.6351185   3.9704761  27.4921799  51.1425114   3.5948110  26.1165261
  67.9429054  26.9082952  64.9401903  67.0539284  26.5613031  65.0146866
  67.8396273  27.8547788  65.0388432  22.5283098 106.8512249  32.6641726
  23.3783507 106.4862537  32.4182868  22.3835707 106.5402317  33.5577965
  76.4564991  21.3852549  68.7194061  76.1518860  22.0652008  68.1184816
  77.4035454  21.5154839  68.7682104  48.9607620  33.0738020  41.2618542
  49.7296429  32.9901123  40.6978989  48.4599829  32.2733879  41.1044073
  86.7426109  30.7029176  56.4263201  86.1677170  30.0934362  56.8892002
  86.7825699  31.4725471  56.9940424  23.9913058  19.4710422  92.0250130
  23.9996481  19.4683349  92.9821682  24.9109077  19.5681393  91.7777443
 108.4911251  32.8413057  67.1946287 107.8673077  32.1200752  67.1114683
 107.9636288  33.6299896  67.0683002  76.5904140  30.6513357  42.3429394
  77.0002174  30.0696611  42.9832125  75.8686447  31.0614800  42.8194475
  16.6550243 103.1330585  78.7916279  16.0974920 102.7164936  78.1344700
  17.3330593 103.5780239  78.2831907  65.8883381  16.9125128  90.3241539
  66.7681551  17.1502197  90.0314903  65.8834982  15.9553647  90.3155422
  92.5973797  22.3054552  58.7687159  93.3039761  22.8334355  58.3969736
  93.0445004  21.6489983  59.3029308  55.0612450  24.2451501  75.9370947
  55.8459616  24.6032858  76.3520527  54.3380976  24.7332144  76.3309002
  48.4841251 107.1208286  37.3739266  47.5836229 107.1270847  37.0494413
  49.0086222 106.8519306  36.6197205  17.5376177  72.9813719  38.9709616
  18.1641138  72.6275396  39.6022630  17.8816772  72.7164984  38.1179094
  42.9345655  43.9175844  74.2243147  42.3780870  43.2489157  74.6236229
  42.9595518  44.6246529  74.8690367  60.8883429  29.1867566  59.6822691
  60.6929731  29.1222644  58.7474442  61.7945576  29.4930267  59.7169971
  55.9046984   2.3376791  83.0332661  55.8966875   2.9241288  82.2768021
  55.7038069   2.9045567  83.7779331  64.9909163  36.3407016  76.2254429
  64.4415426  35.8203650  76.8116760  65.8860111  36.0781384  76.4401388
 113.8525219  79.9876738  39.3064117 112.9701342  80.2683735  39.5489597
 114.4206133  80.6970119  39.6069837  69.4302320  27.1823478  83.0497932
  68.9083624  27.5216484  83.7769413  69.7258711  27.9634905  82.5821972
  96.5194893   7.1182573  56.2817907  96.1255741   6.2463707  56.2521744
  96.2404633   7.4786764  57.1234989  67.4827814  39.8095679  87.5805283
  67.6074743  40.7568932  87.5234222  67.2516012  39.5443225  86.6903400
  93.7929821   8.7587076  65.6935644  94.1466904   8.9678252  64.8290491
  94.5043850   8.9652163  66.2997723  81.7744637  24.9389887  36.7342329
  81.4587212  25.0336123  37.6328897  81.3951206  25.6835842  36.2674308
 102.0093536   6.3120615  78.9539576 101.3846970   6.1207485  79.6535444
 102.6146221   5.5705845  78.9639235  69.5427132  15.2278221  78.4865236
  69.4622040  15.6053972  77.6106310  68.6915541  14.8222542  78.6516762
  73.7810755  14.8676765  73.4837151  73.3085966  15.0650251  74.2924500
  73.8631439  15.7128572  73.0419397  57.5575209 104.4057178  38.3735919
  57.1614599 103.5428810  38.4955740  58.2306433 104.4583702  39.0520906
  81.7757607  29.6469975  62.0966101  81.7048359  28.7514067  61.7662764
  81.1462021  30.1451230  61.5753078  42.1872568 101.9031334  77.2741127
  43.1309986 102.0408154  77.3555183  42.1059132 101.0693455  76.8110561
  78.5885048   9.8850119  27.7192736  78.6811829  10.0810468  28.6515880
  78.2643461  10.6992662  27.3343801  86.5564251   8.6960125  47.2528982
  86.8555355   8.1756610  47.9985523  87.3379326   9.1636598  46.9582939
  97.0200825  34.0352583  36.2044048  97.1893978  33.0958867  36.1326814
  97.2617626  34.3882585  35.3481269  74.2974901  15.6222653  23.3619547
  74.2642546  16.0648131  24.2100573  74.1160822  16.3126755  22.7242613
  23.9996099  88.7889004  49.7519922  24.8495364  88.6194420  50.1583672
  24.1925550  89.3957710  49.0373516  91.9672298  47.3403311  58.6127996
  91.6126823  46.4727354  58.8072443  92.6900578  47.1736193  58.0078554
  49.3443632  95.2067661  75.8156490  49.7912693  95.8373165  75.2509165
  49.2210007  94.4353008  75.2626133  46.7145443 104.7184181  68.9212418
  46.7517138 104.5438385  69.8616505  47.5887394 104.4953251  68.6014843
  43.5542727  12.7143836  30.0177288  44.3652248  12.4659157  30.4614019
  43.2946301  11.9291520  29.5358229  99.2541027  18.8916695  77.0776272
  99.0347004  17.9995286  76.8089628  98.4072590  19.3109488  77.2302437
   3.6292639 104.9395847  85.8389282   3.2922953 105.6303024  85.2683163
   4.5804587 104.9971485  85.7486629  96.2628651   7.0112908  43.7338448
  97.0509243   6.6136765  44.1041183  96.3311768   6.8473750  42.7932596
  59.4852161  31.0866451  45.0956345  59.4868279  30.1296186  45.1138210
  59.9460220  31.3421607  45.8947611  97.7326775  19.7432554   1.2709741
  98.0212593  18.8395452   1.1434732  97.0869541  19.6913195   1.9756635
  58.5457563  99.9579716  34.9013472  58.3576155 100.8865929  35.0373888
  59.4963980  99.8906136  34.9906278  53.7403965  16.8322289  61.5506697
  53.9377403  15.9366858  61.2762785  53.0659771  16.7336941  62.2227430
  75.0687838   3.8420761  64.8222208  74.4238853   4.5258671  65.0032425
  75.3975296   4.0484759  63.9472580  22.6388860  19.2489851  33.9957166
  22.1613836  20.0778842  34.0295959  23.3147764  19.3342757  34.6681213
  53.4341955  88.1423473  50.2294064  53.9564705  88.3643341  49.4585705
  53.6128187  88.8479614  50.8510494   3.7177837   1.9058342  21.8946505
   4.1720873   2.7363390  21.7528701   3.8440177   1.4214471  21.0787678
  81.7430115  27.4963117  85.7657719  81.9046021  28.3083129  85.2853775
  82.5760555  27.0263076  85.7287693  51.7735291  43.9279699  80.0033855
  51.5477324  43.7427044  80.9149361  51.7343664  44.8819971  79.9360800
 104.9886131  20.0392365  69.3881655 105.0749874  19.8881626  68.4469175
 104.9817657  20.9921718  69.4781590  38.2968473   6.9029224  44.2648983
  38.1727791   7.8520012  44.2555141  38.5726094   6.7062628  45.1601696
  29.7692990  50.4467154   8.8351840  30.6645918  50.4694176   8.4972984
  29.4409251  51.3361120   8.7033659  98.7380028  17.2641158  65.8741903
  99.0955448  18.1136525  65.6159592  98.2696342  16.9555914  65.0985146
  22.8420162 105.6964588  78.6010265  22.3024058 105.1267052  78.0529070
  22.4345231 106.5591335  78.5237360 106.8436813  64.0197468   5.4100603
 106.2386417  64.7194529   5.1639569 106.4794731  63.6619329   6.2197191
  44.9811029  17.7150214  51.5230083  45.6596470  17.6845562  52.1974564
  45.0453663  16.8688369  51.0802078  62.9408026  26.0881138  84.0511513
  62.8656435  26.2264967  84.9953079  62.9109573  26.9686151  83.6769009
  46.8770981  29.8678017  24.2121363  46.9430447  30.8074784  24.0421677
  47.2250223  29.7595096  25.0972652  54.5587635  19.8941541  92.1848392
  54.8714209  20.6181955  91.6423988  53.6075640  19.9088562  92.0788383
  94.1726303   2.6006100  73.1189299  93.9133453   2.7880490  72.2167826
  93.3801651   2.7554533  73.6329842  85.3759098  88.9137363  59.0902662
  85.9988880  88.2881451  58.7204361  85.3893089  89.6529484  58.4823036
  67.1350384  13.5029531  53.9267969  66.3140678  13.8829780  53.6140251
  66.8651867  12.8383708  54.5606279  93.4637070  28.9464188  82.9017258
  93.1450653  29.8462534  82.9724026  94.1887760  28.9973116  82.2788906
  66.0474682   1.8414751  86.1356163  65.1445198   2.0467591  85.8931732
  66.2858200   1.1062168  85.5709743  70.3077126  26.2332606  63.7114000
  69.6137714  26.6678882  64.2071629  69.8605537  25.5315757  63.2382059
  27.4539351  91.6442585  67.4599028  26.8461323  92.2339153  67.0136833
  28.2884455  91.7749023  67.0096207  58.5320807  15.4604816  24.2454553
  58.2086754  16.1812043  24.7860122  57.8597021  15.3441334  23.5741901
  64.5543623  56.0316896  27.7047729  63.9923334  56.6639709  28.1526279
  65.3518963  56.5210009  27.5029063  70.6080055  30.5633903  47.3152256
  70.2027607  31.3915849  47.5723267  70.4903603  29.9931502  48.0749750
  42.0536518  95.1019573  47.2757387  42.0785570  94.5791149  48.0771399
  41.2048101  94.8981667  46.8830872  40.5008078   8.6888146  57.9563284
  39.6035361   8.4446847  57.7293253  40.8408785   7.9328895  58.4350395
  51.4662933  79.8843575  44.9072933  50.8283567  79.5932245  45.5588341
  51.9993639  79.1091299  44.7309589  85.4366302   2.2450928  16.0840142
  85.7661057   1.6039237  16.7137611  84.4935799   2.0847112  16.0500646
  54.9732018  95.0625420  68.9335155  54.4676161  95.7591343  68.5147285
  55.3184032  94.5461369  68.2052374 100.5432510   3.8391861  41.7871857
 101.1004257   3.1508785  42.1505213 100.7025814   3.8033798  40.8440208
  96.7587471  52.5513458  51.2975645  96.1956310  51.9970083  51.8377876
  96.3063335  52.6040459  50.4556751  52.9612303  23.2049894  49.0589142
  53.6911249  23.1503963  49.6757650  53.0615759  22.4342012  48.5002995
  45.0936556  12.5761712  35.9004450  44.1936874  12.8924549  35.9794903
  45.3188324  12.2722769  36.7797494  63.2177067 101.0619164  64.7092533
  62.5868702 101.4607716  64.1099262  63.6925268 100.4288673  64.1707087
  83.7420750  42.0448780  69.1686916  82.7964020  41.9553041  69.0507603
  83.9231968  42.9621458  68.9636278  75.9933949  27.8684330  37.8399014
  76.5617371  28.2928705  38.4826088  76.4652109  27.0737243  37.5907850
  38.2169080  26.5919781  51.0043812  38.6582160  26.4372897  50.1691866
  38.7332010  26.0999632  51.6428137  84.1863060  35.8515406  48.5762024
  84.5131111  36.7315722  48.7632275  84.6096802  35.2949119  49.2297745
  54.9400043  15.1068950  47.6905680  55.6436825  14.4682324  47.8053570
  55.3497982  15.9512091  47.8788042  46.8245602  43.8183069  75.6142664
  47.7564526  43.6146832  75.5345631  46.7413616  44.7028637  75.2580833
  53.7937069  41.7001247  59.0047264  54.3666077  41.5973568  58.2448196
  53.1967878  40.9533453  58.9574003 105.0902843  30.5888748  51.4090586
 105.4289436  31.4104939  51.7647028 105.8692551  30.0523424  51.2621689
  35.3406787  69.0833426  22.6230812  35.6405568  69.9675941  22.8337908
  35.7094240  68.9051819  21.7579126 108.9390469  37.7558756  87.8142071
 108.1200504  37.9896212  88.2510471 109.0571117  38.4332538  87.1482849
   7.6596612  89.0658092  49.0326166   7.6702982  88.3941269  48.3507442
   8.5737640  89.1446495  49.3054438  65.3747511   2.0926407  53.5936689
  64.7641802   1.3589656  53.5218668  65.9177685   2.0301203  52.8078842
  68.4287262  13.2532322  41.9571400  67.6349258  13.1170654  41.4398670
  68.9473963  12.4618030  41.8127441  82.8692150   9.4000655  80.9332943
  83.6971664   9.6792889  80.5424404  83.1169510   8.7176234  81.5571022
  20.8178592  98.1573677  81.6338444  20.4354191  98.9322472  82.0455933
  20.3091526  97.4252510  81.9823265  54.1739321  11.3684738  76.8559456
  54.9608850  11.7784595  77.2148991  54.1131973  11.7077065  75.9629345
  27.5674891 102.6415062  61.9802999  28.0366731 103.3818817  62.3649263
  27.2403860 102.1483040  62.7326250  85.2433681  24.8577905  87.3584270
  85.0865746  25.3911138  88.1376743  84.6581078  24.1072202  87.4601555
  86.3989258   9.3366432  61.8253374  86.0892773  10.2402604  61.7634678
  87.3461246   9.4152737  61.9387245  63.4348583 100.8732033  60.3498220
  63.0388927 101.5821362  60.8566332  64.0035200 101.3171673  59.7207355
  37.1019626  74.2721605  30.4318428  37.0705462  74.7648954  31.2518787
  38.0141544  73.9923668  30.3553367  63.7898779 105.5434418  60.0960827
  63.4248495 105.4730034  59.2140245  64.7379303 105.5338192  59.9644232
  58.8138151 104.3349648  48.7680626  58.8721228 104.5708466  47.8422165
  59.2203379 103.4699821  48.8209057  54.6598530  94.0988064  79.7679138
  55.5125332  94.3169594  79.3916416  54.2441130  94.9463081  79.9264574
  97.5919724  12.4732721  28.5423136  96.7845917  12.8904188  28.8429165
  97.3053455  11.8498814  27.8748846  75.2746964  25.1480126  33.6991525
  74.5676899  25.1043200  34.3429422  76.0222101  25.4931045  34.1873789
  11.8586087  15.2746594  19.3243325  12.3068798  14.4586861  19.1019058
  12.4684584  15.9630227  19.0588689  79.2035675   6.4160824  39.0543532
  78.5142565   5.8889103  39.4582939  79.9239111   6.3917112  39.6842313
 103.2190323  19.7097492  38.1540442 103.8811970  19.7319257  37.4631977
 103.1608868  18.7866604  38.4005404  63.0414057  19.4334590  43.7122154
  63.0442476  20.0390267  44.4535065  62.6539326  18.6304367  44.0604258
  68.2950497  82.8756237  40.0848579  68.1995916  82.6107788  40.9997225
  67.9977942  82.1163750  39.5834494  99.1678715   5.5147332  61.0543585
  98.2238865   5.4388523  60.9151983  99.4141579   6.3168818  60.5937767
  73.1911421  92.3656464  56.5493965  73.9995003  92.0017624  56.1883259
  72.5751114  92.3540592  55.8168650  46.8310499   8.8031864  43.3395338
  47.6373911   9.2197573  43.6436939  46.1323690   9.3806303  43.6471605
  10.0082135  80.5712223  36.2544250   9.9617076  81.5260696  36.3028598
  10.5348885  80.3183174  37.0126343  58.0450773  23.1657648  60.3753757
  58.2730389  22.5728059  59.6593666  57.2080660  23.5483766  60.1122189
 109.4611931   9.6374595  80.9918118 110.3587246   9.9624443  80.9207916
 108.9148331  10.4127967  80.8630657  18.1840885  94.3133068  52.1492863
  18.0151248  95.0654507  51.5818596  17.3933733  93.7783718  52.0796967
  56.0119486  28.8264656  41.8961573  55.6347942  29.5426369  42.4071217
  56.3609934  29.2497754  41.1118031 100.1997375  23.8913870   2.6889911
  99.8731804  23.1756639   3.2342723 101.0715103  23.6057663   2.4157360
  30.4257035  97.7249718  38.4420753  30.8953929  96.8944359  38.5184336
  30.9140563  98.3286476  39.0018249  88.6782742  11.2167811  49.0721035
  89.2377186  11.9915938  49.0181160  89.2871284  10.4907060  49.2075300
  74.9956036  27.2838402  78.0583954  75.5797386  27.1772313  77.3076296
  74.4025803  27.9901361  77.8020668  40.4978228  77.8841496  35.3339005
  40.1904249  77.8589725  34.4277525  41.4499664  77.8132772  35.2658749
  93.3632278   8.0928069  46.1106396  93.4115696   8.3966219  45.2042246
  92.8626823   7.2782522  46.0638523 106.1597633   9.7564107  81.4833355
 105.2831554   9.8122066  81.1029530 106.6778183  10.3883791  80.9848690
 106.2753773  12.7251124  71.4091301 105.9940624  13.3157158  70.7103634
 106.9260406  13.2272983  71.8997192 100.9506512   2.4357413  52.0441246
 100.8859348   3.0474097  51.3107061 100.9732628   1.5712664  51.6337538
  86.4009762  37.7327323  26.8569922  86.3072395  38.5577726  26.3808084
  85.5021954  37.4426603  27.0128059  45.9269810  98.2940578  55.4943180
  45.1515579  98.7052536  55.8762503  45.5864143  97.5371361  55.0175381
  11.3851535  55.9572077   5.2477080  10.5034518  56.3208771   5.1665956
  11.9075012  56.4524889   4.6167710 108.8394451  57.8104639   2.2870441
 108.8944340  57.4357986   1.4079355 109.6551704  57.5452566   2.7118841
  85.3868198  30.3930736  51.8543530  85.9034157  30.7978320  52.5511503
  86.0213661  30.2092028  51.1616945   4.4400811 105.9427166  35.9499311
   3.4867650 105.9179020  36.0324192   4.7538686 105.3262901  36.6115856
  50.1552677  20.8734155  51.1585712  50.3485298  20.8618546  50.2211571
  49.4085121  21.4664149  51.2418699  91.2029743  19.8337615  83.4269047
  90.3753281  20.2623415  83.6449814  91.1043072  18.9405537  83.7565613
  44.0764236 102.2072029  46.4941502  44.8789978 102.7141190  46.3711023
  43.6661577 102.1945953  45.6294203 112.9143047  50.4656601  40.6857443
 112.4548531  50.1826572  41.4763451 113.6135674  49.8220253  40.5717373
  71.3021612   2.1016029  66.0695839  71.0588074   1.5486865  66.8120766
  70.7536793   1.7905489  65.3494120  52.6582241  94.4406509  45.7544947
  53.5209703  94.8349476  45.8826780  52.8425455  93.5276890  45.5336761
  75.9970188  17.9986453  79.7207022  76.2407541  18.7959898  80.1908779
  76.6676569  17.9050505  79.0441608  82.2375298  31.6747260  38.1281519
  82.9971409  31.6048169  38.7063599  82.6061249  31.9046021  37.2752023
  78.2205200  16.4380479  60.7191372  77.9186583  16.0475004  61.5392494
  77.9267168  15.8291829  60.0414991 101.1517620  19.4843435  47.1114969
 101.3358021  20.4208398  47.0384550 101.0274887  19.3370903  48.0491018
  47.7150059  36.4860177  51.8285513  48.1974745  35.7767868  51.4037609
  47.3866701  37.0194340  51.1047459   9.3061715  17.9946733  57.6410151
   9.4330657  17.9231322  58.5870647   8.6830544  17.2994769  57.4296856
  72.8682852  21.9417834  36.9929695  72.0739555  22.4562073  37.1366549
  72.7930784  21.6320968  36.0903788  85.9582710  50.4786253  58.3171988
  86.4478970  50.4848766  57.4947309  85.1055717  50.1105690  58.0855274
  73.2676888   7.8793025  85.4276276  73.2022667   8.0093372  86.3736916
  72.6339722   8.4935522  85.0570488 110.6877804  21.8825793  18.7493265
 111.2842369  22.4411535  18.2508540 109.8958111  22.4101305  18.8527715
  87.2926998  25.7439256  70.7827044  86.8618393  26.5957499  70.7121038
  86.7978287  25.1755595  70.1925421 109.6235085  33.2447934  80.0545883
 110.0408077  33.8520813  79.4436026 110.3359985  32.9464936  80.6199360
  96.0275173  11.4611626  70.8799171  95.1784134  11.9005156  70.8326912
  96.2319756  11.4349568  71.8146563  74.4547415  22.3510599  42.7478361
  73.9701796  23.0504298  42.3092985  75.2778482  22.7606130  43.0142784
  86.6587543   3.4312287  45.4363871  87.0112896   2.5705659  45.6626892
  85.9021282   3.2417941  44.8815441  61.3880682 103.8360500  54.1112614
  60.5289125 104.0942860  53.7775135  61.7276335 104.6247005  54.5342970
  39.2129755  91.5373802   9.8800749  39.6044278  90.7892895  10.3310144
  38.2829452  91.4907646  10.1016665  69.1376257  49.8046732  90.7572842
  68.4595013  49.4393253  91.3255310  69.2404270  50.7078457  91.0571957
  86.3307285 102.9861641  42.5128460  86.7221451 103.1687737  41.6586304
  85.6904316 103.6866570  42.6375914  65.8953428  37.1884727  47.9377460
  65.9180355  37.1020770  48.8907719  64.9904537  37.4304819  47.7406740
  79.6159649  55.5570507  86.9301224  80.3194809  55.8153725  86.3346672
  79.6186733  54.6002340  86.9032478  80.0339890  25.6733513  84.6375465
  80.4119301  24.8723364  85.0005436  80.5585575  26.3787341  85.0163555
  53.1152773  28.9888549  44.5124292  53.7473202  29.5093966  44.0166569
  53.3829069  28.0819273  44.3638182 107.4393559  43.1446362  85.0764179
 107.3509884  42.2236729  85.3218842 108.3780670  43.2653666  84.9333191
  78.3750629  12.6815403  76.8887615  78.2949162  13.6316705  76.9727945
  78.7157440  12.5472009  76.0043859  88.0855179  32.6304865  71.4838409
  88.8450718  32.3651171  70.9652996  88.4413147  32.8137445  72.3533535
  66.1656237  15.2541411  65.1484919  66.8038845  14.7882485  64.6083069
  66.6821671  15.6233478  65.8648014  63.9150715  21.6326952  59.2979574
  63.7847376  22.4803329  58.8728046  64.3613625  21.8423533  60.1183844
  38.0839300 105.4648018  24.4695234  37.2585702 105.7610416  24.8532629
  38.1997395 106.0160542  23.6956143  95.4417896  48.1138992  77.4164820
  96.0575390  47.8128338  76.7483187  94.8680592  48.7256956  76.9552135
  90.1605320  32.6517606  67.1886396  89.5323467  33.3138323  67.4772167
  90.6147861  33.0581760  66.4505959  44.3733978 101.9019699  56.0093069
  44.3625593 102.1435738  56.9354534  43.5851431 101.3720322  55.8907843
  62.1713734   4.5244700  62.7984476  62.8486967   4.0571314  63.2873869
  61.4922333   4.7094145  63.4471369  70.6563139 104.6619987  84.8646927
  71.5377474 104.2924976  84.9173927  70.1212406 103.9547062  84.5046139
  62.8934908  18.4344566  61.7650080  63.6501551  17.8497434  61.7225981
  62.1857595  17.8861248  62.1036530  84.1500473  26.6188169  50.2877045
  84.1625214  25.7862973  50.7599211  84.9314785  26.5927052  49.7355223
  83.4739685  13.0882430  71.1329269  83.8510513  12.9008389  71.9925356
  83.9203930  13.8841081  70.8439016  61.7118406  45.2998638  92.3502636
  61.4581537  44.3974018  92.5437450  61.6741943  45.3598309  91.3956833
  65.1426601  10.0222075  62.9311657  65.2012587  10.4850030  63.7669992
  64.7328377   9.1850829  63.1491184  74.7792292  28.9529729  72.2401333
  74.7829723  28.5348654  71.3790846  74.6139526  29.8777628  72.0566177
  73.5393286  10.1551735  83.0639267  73.3734512   9.6043944  82.2988415
  72.7287102  10.1110959  83.5710621 102.8951836  36.8029952  53.0612946
 103.0424690  37.5133204  53.6857748 102.6468086  36.0546422  53.6039782
  67.7001572  34.7027278  43.5111046  67.0420837  34.0165710  43.3999300
  68.4045124  34.2815018  44.0037298  71.3629007  15.5852282  50.4250240
  71.5984821  15.8703244  49.5421553  72.1772718  15.6520581  50.9235859
  76.4005184  89.1369247  46.6614056  76.3938379  88.6881161  47.5068378
  75.4823780  89.1524124  46.3911963  49.6429157  74.2789602  71.4204073
  49.7473431  73.8067865  72.2464705  49.3669033  75.1579189  71.6801786
  45.8785200  20.3897166  67.5010157  46.1071873  20.4420447  68.4290266
  46.2359285  21.1920977  67.1206570  96.9318295  31.3444662  40.9308052
  96.3877106  32.0317054  40.5462694  97.4630642  31.7977667  41.5854406
  54.8885775  25.4598403  83.6700439  55.3806305  25.9523797  83.0131435
  54.5894575  24.6767974  83.2078743  93.1301498  22.2596145  41.6367245
  92.9331779  21.6828156  40.8986616  94.0849209  22.2457385  41.7033911
  64.5016909  17.7058184  56.8057728  64.0480947  17.9787874  56.0082912
  64.9756145  16.9136691  56.5525436  48.1603527  12.5229263  67.9336596
  48.6623192  11.9703579  67.3345518  48.3219719  12.1466184  68.7988186
  96.5999699  29.0758395  52.1669865  97.1902466  28.5283566  51.6492414
  96.1195469  28.4567690  52.7166986 107.0553493  15.1309872  35.7662225
 107.5110912  14.4548011  36.2675333 106.3873863  15.4641056  36.3654613
  90.8509922  12.6639950  53.0120754  91.3198376  12.7726877  52.1846676
  90.4738140  11.7857802  52.9600620 106.1073303  32.2625899  76.7620802
 106.5193653  31.7250085  77.4384403 106.7960835  32.3982692  76.1113644
  84.0864468  10.9120178  21.5916419  85.0329781  11.0236776  21.6801929
  83.9739323   9.9873507  21.3712716 109.3981361   4.2230475  85.7357025
 109.9008369   4.5965654  85.0118256 108.4972095   4.5007357  85.5700397
  41.0724878   4.3817002  62.6163530  41.8553877   4.1547045  62.1145821
  40.3663397   4.3846190  61.9701481  71.5376711  20.3760266  29.3492985
  71.5119219  19.8090005  28.5785508  72.4191999  20.2589226  29.7034526
  68.1269264   8.9907283  35.1084232  67.5518560   9.7324306  34.9202704
  67.8696060   8.7044334  35.9848094  69.9817801  28.5248351  49.1248322
  69.9018526  27.7385116  48.5848904  70.1147509  28.1931257  50.0128222
  68.9038658  12.1472204  85.7518768  68.1854391  12.7142203  85.4715061
  69.3640757  11.9256997  84.9423313 101.8515491  25.7582712  75.9130859
 101.6528511  25.5676007  76.8298197 101.1511612  26.3479447  75.6338453
  85.6075287  34.4009328  61.7638683  85.6676579  34.2965055  62.7134562
  84.7020912  34.1715932  61.5545464  85.9152985  48.5893965  74.5256662
  86.1051846  49.5043898  74.3183899  86.1918640  48.1052017  73.7476540
  86.5075684  14.4001758  53.1266689  86.8029690  15.2729940  52.8675222
  87.2911453  13.9762342  53.4766865  63.0674219   6.4303470  84.9207973
  62.5709248   6.9432414  85.5585003  63.9615250   6.4240026  85.2625179
  71.4833021  87.0365143  58.3851957  71.6720724  87.9348373  58.1138945
  72.2047281  86.5208626  58.0248022  98.7340260  39.7424126  59.5174789
  98.9692307  38.9306736  59.9669170  99.5651913  40.0819397  59.1856337
  57.5704765  26.1565661  79.4160509  57.5983191  25.2853775  79.0204668
  58.3210230  26.6151738  79.0384388   1.1662387  20.6274438  71.3536119
   1.5937327  21.0954809  72.0708418   0.2424884  20.8669019  71.4282894
  67.8038359  10.1595712  49.1354179  68.3078003  10.8848536  49.5044899
  68.3887815   9.7666955  48.4875584  93.5819149  25.2918124  41.1527061
  92.9006672  25.6398439  41.7280388  94.1481590  24.7826719  41.7326880
 105.8555317  15.5367124  69.6450567 105.8530235  15.9196138  68.7677860
 106.2567711  16.2072325  70.1979065  99.2844677  33.7792683  74.4362020
  99.0177727  34.1287684  73.5859346 100.0273323  33.2089591  74.2384052
  68.3214426  27.0518064  28.5330272  67.7127790  26.7349339  27.8656816
  68.4911537  27.9618621  28.2896614  91.2025356  19.2291617  49.3696404
  90.7819366  20.0143957  49.0193033  90.7510281  19.0647018  50.1974869
  98.3993816  11.0857368  82.5722599  98.7716484  11.9133735  82.8766632
  98.9826870  10.4154432  82.9281998   4.7366157 101.3328934  62.5190115
   4.3610892 102.1709156  62.7890682   4.0643793 100.9367561  61.9645691
  56.8130684  15.6609797  67.2962856  56.1055803  15.6491363  66.6516495
  57.5736952  15.3233445  66.8233442  81.3085365  18.0361032  56.3254786
  81.3540840  17.6351774  57.1934748  81.8916893  17.5034380  55.7847118
  77.3687887  35.3800869  17.6099300  76.6647053  35.3533649  18.2578373
  78.0860615  34.8929501  18.0154526  92.1553135   5.2938855  70.3008890
  92.6085281   4.4579798  70.4108572  91.2267017   5.0623608  70.2832794
  68.0515575  30.4528403  49.7390985  68.5971260  29.7505999  49.3849134
  67.6524973  30.8576989  48.9689875  54.2889833  34.2171526  54.7434044
  54.8167372  34.5237923  55.4807520  54.5077705  33.2888579  54.6619368
  77.4382782  91.7510891  44.0715265  77.8985119  92.5174618  44.4137049
  76.5221357  92.0240402  44.0224123  85.1146412  42.5823879  64.4963169
  84.6914864  43.3905268  64.2063475  85.1515007  42.0362425  63.7110758
  61.8086290   5.7505155  65.9062386  61.4426470   4.9060416  66.1692142
  62.7408171   5.6822729  66.1126184   8.6951327  33.1824589  76.8281984
   8.4767270  33.7938285  76.1248064   8.0323768  33.3434176  77.4998236
  92.6688099  26.3597083  54.0734291  91.8672657  26.5222049  54.5707798
  92.9403877  25.4806137  54.3373728  42.8459549  32.3278308  63.0732012
  43.4285879  32.6907897  62.4060917  43.4247446  31.8328428  63.6530447
  94.5353031   6.9317746  58.2665110  93.8092327   7.5477821  58.1686211
  94.1233253   6.0684729  58.2316685  63.4637165   4.0156981  83.6523056
  63.1849670   4.7958994  84.1316986  64.4152021   4.0998104  83.5904408
 113.6613178  62.4495602  70.8920050 114.5479393  62.1041775  70.7879114
 113.2449341  61.8560886  71.5170240  71.1184597  27.8293824  69.0664768
  70.6354713  28.3835983  69.6794987  71.8802261  28.3534408  68.8188839
 102.5510120  56.7829323  58.3449459 102.2901344  56.9970131  57.4492073
 101.7273521  56.6002750  58.7971210  97.3219872  32.0342493  46.9165468
  98.1141949  31.5258312  47.0901966  97.1739864  31.9334078  45.9762478
 104.1946983   5.0458384  37.2718787 103.8989258   4.2031190  37.6162267
 104.5128059   4.8464543  36.3913774   0.7947940  16.0161531  54.6763372
   0.2707194  15.4932523  54.0695810   1.5326750  16.3250458  54.1506481
   5.0179124   9.7703952  46.7562437   4.9180570  10.5372465  47.3203325
   4.5742384  10.0117671  45.9431458  93.0535412  38.0096531  52.0878839
  93.5338020  38.7140846  51.6527319  93.7323570  37.3994231  52.3760796
 103.2331181  46.1961842  55.0873137 102.8578186  46.8670034  54.5168924
 103.5657692  45.5295181  54.4863701  38.1709456  31.4313483  84.4549179
  39.1196012  31.3039756  84.4470119  37.8818798  31.1318374  83.5929585
  94.3569946  13.0904937  68.1857586  93.8300419  12.3018694  68.0568123
  94.4358635  13.1731129  69.1361189  74.2869663  21.5221882  56.2855816
  74.8853302  21.7600822  55.5773449  74.6050787  22.0133996  57.0430422
  76.2237072  12.4081516  63.5291529  76.7886782  12.5799048  62.7758026
  76.5916729  11.6205859  63.9298725  59.6499825  21.4209270  70.9166765
  59.0437078  22.1021557  70.6258392  59.7155952  21.5469122  71.8632746
  27.3388577 105.4016399  63.4591627  26.6616178 105.0030041  64.0056658
  26.8899155 105.6196976  62.6423740  72.5179291  24.4991541  59.5137024
  71.8417978  24.0430260  60.0147295  72.1230936  24.6422195  58.6535454
  77.7010918  28.6538625  43.8217402  77.7239180  27.9364085  43.1885195
  77.5841618  28.2225800  44.6682358  78.3917141  32.1068716  49.5408392
  77.8833723  31.5336537  48.9670420  79.3031073  31.8688440  49.3707466
 105.5499172  46.3422441  59.2093182 105.5535507  46.7877817  58.3621359
 105.5852222  47.0503092  59.8524570   1.4288606  67.2610855  72.0274734
   0.9736376  66.6007519  71.5050173   0.8100303  67.4849129  72.7225876
  94.6044064  30.0512576  33.5737801  93.9805126  29.6560025  32.9648733
  95.1617432  29.3241763  33.8512111  71.3424635  12.5612533  73.6316442
  72.0192719  12.9531336  74.1835403  70.7371855  12.1513379  74.2495728
  29.5053816 106.3082504  83.8320160  28.8479662 106.7047405  83.2603264
  29.6056890 105.4164124  83.4991837 102.9224014  18.5019445  66.5301752
 102.6451206  18.2958305  67.4228477 102.6420212  17.7475047  66.0120630
  69.9631691   9.6261668  33.2507277  69.3065119   9.3746299  33.9001608
  69.5137644   9.5401168  32.4099779  42.7361345  97.7971554  30.3090358
  41.7789984  97.8082085  30.3105783  42.9653072  96.8796062  30.4567242
   2.8406057  30.4539037  47.1957731   3.7304711  30.7253671  47.4208927
   2.4744561  30.1278567  48.0178785 111.4592266  52.1101713  30.2341628
 111.2755299  52.3253393  29.3197274 112.2736454  52.5733137  30.4302478
 107.3788071  63.6927319   0.5305620 106.9160175  64.2124557   1.1877923
 108.1384850  64.2254686   0.2953761  88.4621048  13.0231118  75.5702686
  88.9464951  13.8465106  75.6303596  87.9215908  13.1198740  74.7862291
  69.5854616   5.8630884  39.3045139  70.0186110   6.2670553  38.5525680
  68.9219570   6.5001214  39.5694327  13.2878864  97.4223709  52.5330734
  12.5530291  97.0750618  53.0386305  14.0350842  97.3688984  53.1289482
  86.1349392  10.1465654  76.3716078  86.8137074   9.5486069  76.0586405
  86.5576935  11.0053051  76.3803101   3.3880571   8.9836293  41.3889027
   3.9184386   8.2613474  41.0523987   3.6300433   9.7325486  40.8441162
 112.2668648  49.2444420  68.4312391 112.7477360  49.3159962  69.2557859
 112.6888275  48.5195589  67.9700184  80.1173973  34.0883350  54.8438454
  80.0980377  33.5033250  54.0864706  79.8677063  34.9430799  54.4927168
  72.1702194  31.7006516  41.6216898  72.9726315  31.2373519  41.8619394
  72.4479198  32.3325658  40.9585190  74.6439600  26.5310025  18.2436490
  75.0198698  27.3923731  18.0620897  74.6651602  26.4566922  19.1977239
  87.1158028   7.3043424  31.9083428  87.3761845   7.7483851  31.1013365
  86.1596203   7.3485696  31.9082594   8.2199925  10.4169929  50.9783316
   7.9959118  10.4671776  50.0490808   7.7970070  11.1819708  51.3683605
  60.2827787  93.7336636  52.7211809  60.8288145  93.4718609  51.9798708
  60.8210945  93.5512924  53.4913683  99.1205788  49.6746588  73.6118174
  98.6961937  49.0667820  74.2173004  99.6964455  50.2016115  74.1658354
  23.8651061 102.2127533  66.5920019  23.0343318 101.9501972  66.1956310
  23.6712170 103.0432320  67.0266724  88.9383125  48.8437748  83.7061405
  88.9425564  49.4072437  84.4799137  88.2843971  49.2361975  83.1276703
  73.8221216  29.1769838  37.9440713  74.6569633  28.7087798  37.9368377
  74.0650749  30.0984621  38.0339766 109.1403103  19.0292335  71.1899137
 109.5805454  18.3675575  71.7233992 109.1003227  19.8026621  71.7524433
  53.1999445  14.0218163  81.5016460  53.5232496  13.1244123  81.4218140
  53.8394737  14.4575739  82.0649815  97.1158791  36.7471123  36.8481445
  98.0128288  37.0139933  37.0493460  97.1373367  35.7907391  36.8816233
  89.1987896  28.0949831  61.1254978  88.8265800  28.5460711  60.3677320
  90.1173115  27.9565191  60.8944511 105.4865265  23.8227129  65.7255602
 104.8407745  24.1355491  65.0920200 105.1554394  24.1216040  66.5724850
  48.8561773  34.7699547  49.3260098  49.2726374  35.4126906  48.7518215
  49.0269661  33.9271069  48.9056873  64.3516541 102.9328346  66.2019110
  64.0742397 102.4705887  65.4109621  64.9241686 102.3126602  66.6533995
 109.9758816   6.9158995  62.6618004 109.5772743   7.6662302  63.1026459
 109.2952347   6.5969592  62.0691538   1.6715156  54.2710638  45.9220028
   2.2570366  54.0753126  45.1905155   1.2914467  53.4247541  46.1576748
  98.0087948   2.5722215  82.3546410  97.9277325   1.7536688  81.8651199
  97.1444511   2.9779905  82.2876072  31.6813779  89.4120789  25.4805183
  32.2058773  89.0812397  24.7513533  32.1027970  89.0525913  26.2611651
   7.6225352  76.8945456  40.5733347   8.3430833  76.5322590  41.0888815
   8.0313843  77.5694227  40.0314713   2.7534893  58.7213087  54.4360685
   3.3980441  58.9719391  55.0978613   3.2380545  58.1609488  53.8299131
 113.0487061  10.5673957  48.0268097 112.2459126  10.0870311  47.8243351
 113.6388206  10.3643739  47.3010159  74.9391031  16.4549351  48.9640427
  74.5662260  16.7120647  49.8073006  75.6188059  15.8188033  49.1866970
  92.4163818  18.6352766  56.6334534  93.3101082  18.8067222  56.9302416
  92.3491478  17.6806211  56.6149044  88.7035465  25.2849483  77.1600437
  88.6866093  24.3930101  77.5070143  88.2543659  25.8086252  77.8235388
  55.8359680   0.1854012  31.9102526  55.3621552   0.7329724  32.5362682
  55.7976887  -0.6946400  32.2848225  82.8908825  47.7139091  81.4035416
  83.6256599  48.1819391  81.8001175  82.9509068  47.9202080  80.4707623
  93.9430809  20.4718304  60.6257534  94.2163563  21.2202954  61.1561823
  93.3818245  19.9585664  61.2069368 102.6934338  12.3195660  53.4541512
 101.7668533  12.5585580  53.4779072 102.6976776  11.4047432  53.1725264
 100.1552773  30.6128192  73.7269163 100.6757832  29.8945475  73.3671999
 100.3809834  30.6297922  74.6569681  95.2471161  76.2303114  54.8273516
  95.7619190  76.0674524  54.0369844  94.4636250  76.6821718  54.5139837
   0.3105209  47.2694969  66.7568970  -0.3509787  47.4810648  66.0981941
   0.9073683  46.6675949  66.3122416 108.6000633  27.6556540  44.5271683
 109.2266083  26.9411469  44.6418667 109.0645981  28.2976770  43.9902830
  72.8727674  56.8915081  60.3649521  72.1721745  56.6377974  60.9658051
  73.4295893  57.4759007  60.8794069 111.4370537  37.8302860  90.4485703
 110.5628395  37.4719381  90.6020641 111.6509151  37.5651646  89.5540237
  97.3742390  21.6210675  60.7035732  98.1537724  21.9369411  60.2466440
  96.7066956  21.5549302  60.0207567 104.8313904   9.9736959  44.7554731
 104.0282726   9.9857593  44.2348194 105.2360153   9.1303909  44.5521307
  87.2044754  23.7140942  61.7017746  87.2922421  24.6399784  61.4753485
  86.2624645  23.5818291  61.8083143  78.4260273  63.0268383  53.3449507
  79.1224861  62.4801064  52.9812813  77.6833820  62.4317455  53.4477901
 103.1900120  44.4131231  59.9249220 104.0406036  44.6328068  59.5448303
 102.5922298  45.0715828  59.5709133  77.2930527  43.3168364  18.6958075
  77.8909969  42.5693846  18.6989975  76.5174675  43.0050945  19.1621983
 110.7879162  21.5479255  69.3652344 110.1799488  21.0753536  69.9338102
 110.2273941  21.9739294  68.7167263  99.7955227  51.7998362  60.6700754
 100.0753784  52.5499439  61.1947155 100.5582619  51.2217808  60.6526899
 103.5966682  30.1916647  42.2159624 103.0144787  30.9279633  42.4034452
 104.1395855  30.1099300  43.0000496  14.4069088  59.0907812  85.1248360
  14.9644995  58.5656500  84.5507622  15.0117850  59.4775724  85.7578850
  93.7558079  23.7964344  50.3876162  93.7228966  23.1086850  51.0525560
  92.9364681  24.2782474  50.5006123  97.9281139  61.3575125  50.3545141
  98.0502605  61.5243053  49.4199038  97.7855968  60.4127645  50.4125881
 105.3815079  19.8477137  66.7176580 105.8562565  20.2508140  65.9907770
 104.6520233  19.3882203  66.3017941  77.9842520  37.3967314  85.3004742
  78.1648874  38.1809187  84.7821617  78.5524273  37.4796939  86.0663223
  98.8154793  28.1024551  51.0507298  99.0269089  27.3648691  51.6230059
  99.6663189  28.4581852  50.7942677  94.5965862  57.9596424  46.1228228
  94.5125294  58.9126682  46.1529160  95.4599571  57.8073597  45.7386017
   9.4686383  53.4410572  80.7799435   9.5811075  54.2131853  81.3343811
  10.3503799  53.2416201  80.4653168   9.5610601  58.7873173  33.3720374
  10.5180943  58.7805796  33.3555532   9.3136597  57.8660202  33.2930756
  86.0849380  35.4741883  68.0491114  85.3452969  35.1939583  67.5100088
  85.6817627  35.8747363  68.8193321  82.1519852  37.1127224  67.0128202
  81.3518715  37.1263623  66.4875889  82.1834946  37.9766488  67.4237537
   7.4319130  60.2283335  34.7651863   7.7470154  61.1009455  35.0007510
   8.2196313  59.7519684  34.5028734  76.9558001  17.7641439  65.7155752
  76.7348385  17.9643869  64.8060083  76.9300699  16.8084908  65.7634926
  83.2401466   3.0819461  41.8318272  82.2832680   3.0846006  41.8070269
  83.5000992   2.6793829  41.0032129 110.8146667  15.8364308  45.9382105
 111.6807747  16.1794233  45.7181358 110.7516956  15.9364974  46.8880796
  94.7542858  43.1343126  74.9471331  95.6589508  43.1987619  75.2531719
  94.5458794  42.2022200  75.0103617  97.5796986  47.9024458  57.2741938
  97.3663330  47.2481585  57.9394865  97.8371048  47.3897696  56.5079451
  84.5142841  52.7771139  84.1771221  84.7507000  52.5761271  83.2716179
  85.2354622  52.4227285  84.6972561  83.8163948  85.2344990  75.6839609
  83.3825970  85.8325768  75.0753832  83.6866379  85.6328297  76.5446186
  70.6886435 104.1630650  90.6350613  71.4545536 104.3554592  91.1759853
  70.3491735 105.0227261  90.3861237  32.5090313 101.1104965  55.9355307
  32.5386262 101.7238331  56.6698217  31.5993762 100.8138752  55.9077358
  29.1804004  46.1078215  40.2001238  28.3623767  45.6409645  40.3707504
  29.7309971  45.9111357  40.9580088  62.4371243  20.9975457  75.7355118
  61.6631556  20.5844045  76.1182976  62.1672058  21.8998790  75.5647182
 103.9550495  49.3556309  69.1960049 104.7284889  49.8733282  69.4196272
 103.2409477  49.9923611  69.1665983  72.6371622  15.1731229   7.7727640
  71.7785501  14.7558439   7.8426814  72.8651381  15.4043245   8.6732113
  88.3033752  71.2314367  82.3487568  87.6815128  71.9032288  82.6284313
  87.8959084  70.8332062  81.5795898 112.8209114  54.4360590  87.2514439
 112.7101231  54.6951389  86.3366604 113.7488556  54.5860577  87.4321651
  93.2228374  55.3036308  59.2368460  92.6119709  54.8431396  59.8121881
  92.7719784  56.1171818  59.0108156 109.1819954  40.4015970  91.8591404
 109.0390491  39.5144534  92.1889496 108.8072777  40.9704161  92.5316429
  89.8133755  68.9851189  53.4942627  89.2098808  69.7189808  53.3781958
  89.3198872  68.3487225  54.0116596  42.3560524 103.8917732  69.6439171
  42.2145653 104.3383980  70.4786253  41.4776373 103.7788486  69.2807865
  81.1654091  16.4194834  58.6281967  80.5322647  16.8800616  59.1788530
  81.9645691  16.3913107  59.1543007  82.4285889   2.7826482  64.8678350
  82.8735352   2.6799718  64.0265799  83.1377506   2.8511429  65.5070782
  79.4090462   7.9436457  44.4819403  78.4985018   8.1456602  44.6971893
  79.3933725   7.7328664  43.5483646  99.5719147  34.9486566  43.1037045
 100.3617287  35.4823852  43.1906366  98.9878368  35.2716708  43.7898159
  96.5734673  31.6306996  23.6609912  97.3163128  31.7834926  24.2449927
  96.1172009  32.4715447  23.6287951  96.2813282  41.8296719  66.5482092
  97.1231842  41.3758183  66.5090799  95.6296635  41.1302996  66.4987898
 111.6420174  11.1306918  58.1110477 111.3977528  11.1229658  59.0365219
 111.2301445  10.3465736  57.7480698  94.0965176  34.0400791  55.1721001
  95.0280380  33.8316512  55.1009035  93.6977100  33.6174798  54.4114494
   8.9064455  29.4911051  60.0146675   9.5984173  29.7474742  59.4050121
   8.1146735  29.4573283  59.4778347   3.0604619  43.5140276  34.3501949
   3.7283581  43.6725235  35.0172973   3.4894603  42.9433489  33.7126040
   3.8632345  97.0077324  15.5206954   3.5850883  96.8753052  16.4269674
   4.6650428  96.4914417  15.4383636  67.2922421  18.5078549  61.4314222
  68.1617308  18.1969321  61.6835117  67.3956871  18.8002896  60.5258751
  13.8740003  44.5316219  53.7629414  13.9136398  44.0681124  52.9263878
  13.0811274  44.1990995  54.1836691  93.4079933  32.1265268  68.8392210
  92.7619457  32.8209257  68.9682913  92.9231834  31.4266038  68.4018469
  87.9608440  91.0954285  11.4698887  87.2659683  90.4372883  11.4854145
  87.6413155  91.7945862  12.0402503 110.1377296  29.7609448  43.0319166
 110.8968449  30.3412819  43.0882883 110.4213810  29.0507817  42.4562073
   1.3308863  21.3034368  40.4367781   1.7658953  20.4804611  40.6597424
   0.4041099  21.1393714  40.6111383  90.0479889  36.4309812  46.8458462
  89.1069794  36.5907788  46.7737579  90.1456356  35.4942250  46.6750050
  85.9823322  56.6285467  21.1397815  85.9918976  56.1747885  21.9825411
  86.8683815  56.9783592  21.0460424 107.0131874  62.4014330  92.1416950
 107.5462341  63.1866121  92.2665596 107.1433640  61.8937063  92.9426384
 109.8226070  50.3821659  70.9017515 108.9956951  50.5676317  71.3467836
 109.5678234  50.1572418  70.0069189  91.8337154  34.6436501  58.5655308
  91.6769409  35.5062342  58.9497185  91.1809635  34.0764427  58.9759207
  85.9550858  37.1036744  57.2844219  86.8144608  36.9765067  56.8825150
  85.9643364  36.5352345  58.0544996 113.5539150  81.4479637  49.9510765
 114.0771866  81.9629097  49.3368673 112.8812790  82.0548439  50.2600908
  98.0514336  61.7035627  34.1354442  97.8346252  61.1856461  33.3602071
  97.8628731  62.6067209  33.8805270  48.1858587  80.3806973   2.3631094
  47.9522896  81.2910843   2.5444180  49.1048193  80.3130245   2.6222703
 110.8537674  73.4034443  46.7073441 111.6604900  73.0955696  46.2942457
 110.5808735  74.1495180  46.1733627 107.6312637  36.3481045  73.2215738
 107.6514626  35.7606983  73.9770746 107.2428513  37.1561837  73.5567904
  82.2159481  39.6468306  68.5602951  82.7335930  40.1185989  67.9078341
  81.4964104  40.2418804  68.7710667   0.7852811  15.1324999   4.4234309
   1.2226246  15.9831738   4.3871477  -0.1424143  15.3347647   4.3021783
  94.3434525  44.2184258  57.4755287  94.3590927  45.1151562  57.8099775
  93.4753704  43.8903904  57.7101564  98.4709263  58.6844826  60.0313139
  98.4077168  58.6827993  60.9864235  99.1892433  58.0821705  59.8377514
 102.8792095  41.1371946  46.3073492 103.6586857  40.8782434  45.8158302
 102.4998569  41.8517351  45.7957363  70.8422613  20.8027339  64.5787954
  71.4264202  21.1420107  65.2569437  70.2934170  20.1636147  65.0332499
  83.3237743  57.9537201  46.9396210  83.9454651  58.1687498  47.6349545
  82.7189922  57.3311281  47.3431683 103.4225464  47.9677916  49.1960716
 103.2492542  48.8162470  48.7882328 102.5827789  47.7082729  49.5751143
  89.4281483  47.3611403  62.9726648  88.9979172  46.6634274  62.4783659
  89.7021675  46.9426107  63.7887383 101.7780685  26.2124562  79.4257975
 100.9723282  26.5819716  79.7870064 102.1833611  26.9388127  78.9521217
  95.9071732  57.6352930  91.2666988  96.6056252  56.9812489  91.2916374
  95.1845360  57.1969795  90.8173466 103.0052567   1.8736404  87.5978374
 102.6434803   1.4011209  86.8481255 103.0648708   1.2150928  88.2899284
  84.2785454  25.2218556  64.5612431  83.5193825  24.6547079  64.6963549
  84.1454124  25.5968952  63.6906958  97.2940922  61.2800884  56.4325953
  97.5033283  61.8425369  57.1783161  97.9709816  61.4785385  55.7855558
   6.8129855  59.3246078  86.0863018   6.8002379  59.8754549  85.3035927
   6.1605090  58.6461878  85.9123802   0.4096333  51.4717579  22.8205276
  -0.2705903  50.9506941  22.3938918   0.1957839  51.4278316  23.7525010
  93.0309677  49.8779488  76.4918375  93.0787277  50.6295586  75.9010458
  92.2649956  49.3873405  76.1938095 105.6151295  53.1719685  89.5775032
 105.8778381  53.7217712  90.3157043 106.0416126  53.5700798  88.8186550
 101.6194057  39.8135877  67.0531034 101.5431213  40.1618147  66.1647606
 100.7654381  39.9830198  67.4509287  92.0069504  15.4638541  40.2391386
  91.3481140  15.9051454  40.7752562  92.0404530  14.5724893  40.5863810
  89.1419601  31.3661075  63.5560465  88.5216808  31.7541337  62.9388523
  88.6070347  31.1211205  64.3110752  66.4460373  10.1071811  58.8530874
  65.7884836   9.4117397  58.8384151  65.9391403  10.9142482  58.9421368
   4.9647829  60.4081202  67.6351833   4.6045986  59.7921753  68.2732391
   4.2964688  61.0887527  67.5556564  81.9215012  21.6549420  72.5012255
  81.1021805  21.1762214  72.6268339  81.6566944  22.4807215  72.0960093
  84.0254021  15.5322981  70.3676367  84.2535782  15.8928955  69.5108175
  83.5891438  16.2528622  70.8222818   0.7924097  74.0717173  63.8751650
   0.9367953  73.2129765  64.2725945   1.6425696  74.5078850  63.9318895
  87.7190208  54.2555761  83.9930344  88.6018562  54.4303894  84.3190479
  87.2205925  54.0085363  84.7719860   1.3651007  51.7783308  47.8472900
   1.9455191  51.4820957  47.1461582   1.4839444  51.1338425  48.5449600
  83.9065647  35.1158738  66.5118361  83.4724140  34.5751286  67.1716404
  83.4459114  35.9541464  66.5482664  82.8286552  40.1677322  71.3348103
  82.8870296  41.0938883  71.1001730  82.8069115  39.7088146  70.4950762
   2.6383263  62.8006983  25.2427602   1.8710008  63.3700371  25.1853585
   2.6677182  62.5301552  26.1604595  87.4893856  37.1211362  50.2098322
  87.6590061  36.5545917  49.4571829  86.6719627  37.5694084  49.9927902
 109.1651344  66.2713957  67.7039099 108.4900379  65.6873703  68.0494547
 108.8377094  66.5333080  66.8434238 100.5141830  56.5753698  86.5030670
 100.1985264  57.1533918  85.8084679 100.6133080  55.7230616  86.0788250
  89.4388485  18.4879279  56.1729574  88.9163494  19.2785740  56.3074923
  90.3057194  18.7134039  56.5105009 105.8075047  21.4556193  64.5407963
 105.3572655  22.0363641  65.1541901 105.6413555  21.8407917  63.6804056
 107.4998283  21.9041848  43.2371140 107.3059273  21.5684462  44.1122770
 107.6632595  22.8379798  43.3695936  82.2239590  47.4730730  66.6356754
  81.6980648  47.2361326  65.8717823  81.7728043  47.0629787  67.3735857
 112.1234322  54.5923996  55.3505135 111.7407799  53.8634586  55.8388233
 111.3957119  55.1998138  55.2174854  84.3309116  23.3646274  62.1060324
  83.8849640  23.4205008  61.2609053  84.4252682  22.4255204  62.2654343
  81.7057705  50.1572227  66.7696762  81.7554951  49.2515278  66.4639425
  81.9562531  50.1126146  67.6924419 100.7601357  37.5138307  78.7370682
 100.3358841  38.2652617  79.1513014 101.5572166  37.8733993  78.3476925
  11.7388320  57.3752069  47.5900030  11.5631473  56.5391874  48.0217838
  10.8737767  57.7070999  47.3496723  99.6356773  51.2807417  64.8400164
  99.8611164  52.1923685  64.6546745  98.7758636  51.3268900  65.2581358
  99.8272133  47.1953392  64.0812969 100.4664421  46.7991352  64.6734428
 100.1919937  48.0562592  63.8763905 104.6018124  27.9701138  64.8511839
 105.5151653  27.8433418  65.1079988 104.1688347  28.2746673  65.6486797
  94.5915985  39.7029328  69.7909021  94.9224281  38.8940144  69.4004679
  93.7277222  39.8233438  69.3966389  72.9825115  45.0756073  73.4815598
  72.1737957  45.1798391  73.9829063  72.9318762  44.1878700  73.1271648
  89.5966053  61.3733673  59.0429783  88.7216377  61.3639164  58.6549282
  89.5346737  60.7755470  59.7879648  88.3093739  67.4524975  78.7713671
  88.6359596  66.8988419  79.4806242  89.0160084  67.4562693  78.1257010
  87.3257446  15.6907058  47.2563601  87.1411610  15.7996941  46.3234711
  87.3049545  14.7439182  47.3956156  26.4138150   9.5344895  19.8566842
  26.6446996   8.6200505  20.0201654  27.2445798  10.0059545  19.9181962
  25.1162887  69.6456289   0.1238570  24.3943143  70.0704288   0.5870319
  24.7869754  68.7707710  -0.0820687   1.9076000  30.2227783  49.7816133
   1.1155032  29.9139404  49.3418026   2.1200567  29.5298266  50.4068470
  37.1471262  29.8382950  45.2605200  36.7805672  30.7033229  45.0772333
  37.7511334  29.9835110  45.9887505  96.5529346  14.8414016  68.9682722
  96.7461205  15.7263637  68.6588240  95.6962299  14.6380770  68.5928440
  91.4094734  76.7021561  64.7690678  90.7753658  77.4182272  64.7318602
  91.4739132  76.4874077  65.6996393   1.3662598  34.5183659  73.4535551
   2.2175404  34.1333699  73.6617184   0.8058681  33.7679267  73.2559872
  95.4478550  32.5355411  38.5533071  95.4147053  32.7574015  37.6227641
  94.5715332  32.7399826  38.8796425  72.2551537  39.2819381  75.8373070
  71.9674635  39.2731071  74.9244070  72.6697588  40.1373577  75.9495115
 109.1720009  55.9345675  65.1683521 109.4334602  56.6851616  65.7017231
 109.7837162  55.2408457  65.4149151  70.6874228 104.9478626  68.2007456
  70.4762554 104.1241646  68.6402464  69.8375416 105.3116512  67.9525614
 105.3039169  39.1981196  47.8615522 105.3425503  38.4639835  47.2485399
 105.0699329  39.9511623  47.3189592   6.4081466  68.2533264  47.3194075
   7.1723211  68.8286304  47.2834635   6.5821809  67.5824118  46.6592407
  89.4237900  23.7888360  39.5421767  90.3200626  23.9958525  39.2774725
  89.0287495  23.3962822  38.7636709  85.5241871  54.4654799  58.4819746
  85.7511616  55.2968979  58.0654907  84.9436569  54.7093582  59.2028999
   3.1258821  30.0075245  32.3021221   2.3276496  29.9182630  32.8227854
   3.1879523  29.1852975  31.8159938 107.5247097  25.0474429  70.6856108
 107.3238373  25.9015512  71.0682106 108.4805870  24.9985790  70.6973171
   1.8640314  12.7250063  75.3667831   1.8938270  13.2405436  76.1727381
   2.2711115  11.8908942  75.6008244  41.7607880 105.4023266   5.9835482
  42.4959707 105.9455299   5.6995410  41.0038614 105.7634926   5.5221933
 101.5485954  42.4971914  76.6111088 102.0899963  41.8810320  77.1045303
 101.6402721  42.2198629  75.6995630 111.0392380  22.7416372  39.2697644
 110.8744907  22.7903724  40.2114201 111.8451500  23.2418895  39.1414022
  90.2087021  37.9512143  57.2230101  91.0944176  38.1286621  56.9063807
  89.8271465  38.8174844  57.3652363  93.7979889  29.5108008  43.4974957
  94.6179104  29.0250731  43.5870743  93.8570786  29.9236512  42.6359320
   3.8318232   6.8247956  55.8345890   3.2540670   7.5750458  55.9744263
   4.2458120   6.9956964  54.9886322 100.1001930  30.2884579  39.5272255
 100.9137440  30.6942344  39.2277026  99.4152546  30.7192326  39.0158319
  84.0346146   5.5657274  43.0859423  84.0584469   4.9153265  42.3840570
  84.9550533   5.7360685  43.2859850  83.6810112  55.6508684  88.6840343
  83.7449074  55.0929165  87.9088879  83.2416916  55.1052332  89.3363380
 104.2528439  53.2544184  39.4925880 104.9169731  53.2267427  38.8038230
 103.9673328  52.3456478  39.5866609 103.8609028  51.3085890  72.0702839
 104.0207672  51.1254740  72.9961014 102.9380417  51.0910797  71.9389820
   3.9439341  25.5409741  45.3815842   4.3205103  25.8106327  44.5439053
   4.6933985  25.2398419  45.8952522 103.3510590  50.6602049  39.3614936
 104.0194035  50.3638935  38.7436414 102.9218578  49.8561430  39.6538901
  99.8572636  30.9655643  54.4937897  99.4488525  31.8305182  54.5296907
  99.1270542  30.3522730  54.5768690  92.0415115  59.0573692  48.7129641
  92.1286774  58.1087399  48.8064480  91.3534260  59.2969942  49.3337202
  73.4554386  77.6940775  39.5067930  73.3238840  78.3431578  38.8156915
  74.3283653  77.8838634  39.8506093   1.3194418  10.6213331  31.8083262
   1.1141999  11.1913478  31.0672522   0.7624216  10.9412134  32.5180006
  77.0904875  78.2482433  60.6062937  77.3981380  79.0428352  60.1701689
  76.4108944  78.5528851  61.2076092  80.2445316  41.1356115  85.7453060
  79.5749044  41.0215139  85.0709057  80.0575829  41.9938660  86.1256695
 112.2563457  96.7779636  48.3140278 112.5635719  95.8931255  48.5112953
 113.0428600  97.2486591  48.0382204 107.3347378  57.1584702  63.0333042
 107.2721004  56.2996387  63.4512997 108.2579708  57.2419834  62.7947664
  91.5591526  51.0974598  60.5194855  92.2271156  50.8168507  59.8939276
  91.1742687  50.2820635  60.8407736   9.6133924  17.4663341  52.7408934
  10.4860449  17.1076238  52.9022551   9.4908786  17.3820555  51.7953157
  31.6103435  95.5021858  53.9872026  31.7681241  95.2009487  54.8819590
  32.1352386  96.2985611  53.9065313  94.2125130  19.7852063  48.5154629
  93.3878326  19.5095801  48.9156628  93.9487457  20.3362703  47.7785873
  94.5245743  38.2687068  76.0143661  94.0666580  39.1081667  76.0573959
  95.0576305  38.3270240  75.2214718  88.2181358  46.2925673  69.7988701
  88.4459114  45.4014874  69.5336723  87.5615025  46.5718842  69.1608763
  98.9230251   6.5018380  47.9213619  98.4998608   7.1976227  47.4183226
  98.2357597   5.8483928  48.0514288  89.6449471   6.6920787  80.4927826
  89.9201202   7.3596174  81.1212063  89.1457081   6.0635328  81.0142422
  16.5280473  66.9469357  80.3409100  16.4060175  66.6508913  81.2429619
  17.3683667  66.5719175  80.0773525 106.8253326  38.7430930  55.2410746
 106.5187836  39.6493387  55.2097797 106.4764881  38.3445811  54.4437456
  89.5234203  75.4310036  61.2671423  89.5763016  74.5641279  61.6695881
  90.3445339  75.5210400  60.7835150  21.6926217  49.8582697  72.9707718
  21.7345333  50.5960655  73.5791588  21.2153745  49.1802502  73.4490538
  11.4849019  59.6231747  81.5241146  11.5942049  60.3265524  80.8841610
  10.6545353  59.8205280  81.9574451  75.2481365  64.6621704  37.9138565
  76.1756039  64.7805834  37.7088642  75.0901890  65.2466583  38.6552453
 112.1380329  44.1488743   5.3999233 111.7503452  44.9926662   5.1676553
 113.0372238  44.3595648   5.6515199 111.4374828  38.8351274  43.9651728
 110.7961655  38.3634472  43.4337091 111.8238163  38.1631231  44.5267630
 107.6756954  61.5257168  51.6531658 108.6021900  61.5245724  51.8936348
 107.5092793  62.4166107  51.3452005  89.9982357  50.0393486  63.9009428
  90.2690983  49.4949389  64.6401882  89.5207310  49.4416666  63.3256149
   7.3818594  49.4431353  51.3414907   7.1845978  49.9723291  50.5686569
   7.9728895  49.9884415  51.8606758  82.9112911  61.3667107  47.0999002
  82.3208237  60.6140614  47.1330881  82.6988602  61.8015575  46.2740612
   3.6381748  54.1064453  54.3539238   2.9251707  54.6435881  54.0084696
   4.1842139  53.9141846  53.5916185  18.7777686  57.3763609  75.0637627
  18.9869428  57.0969057  74.1724825  18.9197099  56.5956545  75.5990887
 112.5789356  42.0545912  49.5692062 112.9819012  42.9133415  49.4411659
 112.1357536  42.1216869  50.4149723 112.0739746  40.6101418  57.8499603
 112.9122162  40.1732349  57.6992989 111.7189503  40.7561111  56.9730997
  84.5390511  31.2868285  68.6509418  84.4524288  30.3782153  68.3625841
  85.3197193  31.6079473  68.1996536  86.5581894  32.9641962  84.0519238
  85.9006214  33.6592579  84.0249634  87.3738956  33.4145617  84.2710781
   7.5623626  23.4305668  67.8220654   8.3785707  23.3874488  67.3238897
   7.0940018  24.1779613  67.4502182   5.8225995  26.2372398  51.3153028
   5.8711183  26.8975210  50.6239939   5.0156331  25.7564926  51.1311293
  91.7344952  58.4032631  21.0891104  92.5777245  58.6866903  20.7357502
  91.2896347  59.2163086  21.3284707 102.1863461  54.3477058  64.2848349
 101.3066196  54.4488859  64.6482515 102.7029800  55.0291443  64.7148991
 106.8261337  28.7702370  15.7891858 106.7852116  28.7454033  16.7451882
 106.0064983  28.3665109  15.5038047 107.8052616  84.8274422  85.7961750
 106.8860912  84.6109009  85.6397724 108.2371712  84.6574497  84.9590492
 101.3044167  54.0341663  61.5207338 102.0719242  53.8678837  60.9734631
 101.6154099  53.9012337  62.4161911  85.3429890  83.2991505  15.1417685
  85.3120804  84.1068077  14.6289706  84.7037697  83.4349060  15.8411980
 107.6238155  62.2531700  63.3548212 107.5218296  61.9968081  62.4382496
 106.8316650  62.7524376  63.5534525  95.4450130  51.6212273  70.5754757
  95.2442455  50.8040285  70.1192856  96.1706352  51.3980436  71.1584806
  92.1964550  30.6190252  59.6352673  92.0017433  31.0514641  60.4667187
  92.1223354  29.6844172  59.8282623  91.1500168  55.9512711  13.8027573
  90.7303715  56.1835003  14.6311259  91.6563797  55.1640844  14.0031981
  88.7614441  66.1899757  81.4476585  88.0376530  66.7300558  81.7649364
  89.5480251  66.6848421  81.6770840  95.1797771  62.6185799  85.2975464
  95.7899284  61.9411707  85.0058842  95.5730438  62.9666853  86.0977936
   9.2521602  40.7731724  82.5631523   8.8962239  39.9200702  82.8116703
   8.5823613  41.4005852  82.8350925 104.2236328  65.7961512  56.0828638
 104.5334244  65.5184889  55.2207899 103.2921314  65.9762764  55.9560442
 106.1645794  85.4469013  16.1533606 105.2558708  85.1623917  16.0557640
 106.2784481  86.1194038  15.4817939  99.1740704  71.8329382  29.8652196
  99.2679310  72.0360184  28.9345312  98.8841343  72.6545572  30.2615929
   1.9819236  83.3652115  29.5789313   1.2169188  83.4705925  30.1445246
   2.4344820  84.2071915  29.6288300  97.6585007  46.8583488  74.4133425
  97.2574329  46.3511848  75.1191425  96.9187355  47.2540712  73.9524984
  76.5142298  68.0388308  59.8482990  77.3681545  67.7796745  60.1945353
  76.3218307  67.3878622  59.1734219  97.7324486  51.3791609  68.0544662
  97.9099369  51.2965536  68.9914322  97.5309944  50.4878855  67.7693653
 102.6611710  65.7063150  33.6645555 102.6377773  66.2518644  32.8783846
 103.5847664  65.6868601  33.9151931  17.5794697  40.5985975  88.9394855
  18.4059787  40.3364325  89.3449211  16.9052243  40.2215862  89.5047188
 101.5821075  48.1911707  54.1513348 101.8381977  49.1111517  54.0858936
 100.7598114  48.1362343  53.6644650 110.2715874  66.6835356  72.2689152
 110.0399113  65.7747984  72.4606228 111.1568069  66.7839861  72.6189756
  53.9418316  88.7028885   1.1132555  54.1952419  89.5730686   0.8053504
  53.6509562  88.2450581   0.3245730 103.6575413  80.3314018  41.9913387
 103.6611462  80.3282261  41.0341549 104.1510296  79.5483446  42.2353172
  11.0690701  64.5902443  63.5564661  11.8459654  64.4383478  64.0946054
  11.4159596  64.8160315  62.6933813  14.8747790  69.2193651  81.1313534
  15.4764163  68.7109089  80.5875397  14.5623469  69.9168968  80.5551052
 101.2904739  17.5155878  78.4865236 100.6235790  17.9207647  77.9321671
 100.8438778  16.7743182  78.8955498  93.6067867  73.1649065  81.4982414
  93.9965725  72.5863981  82.1537018  93.3337498  73.9376068  81.9928265
 108.1618309  78.6718178  69.7715139 108.7186146  78.0638075  70.2578783
 108.7064266  78.9623690  69.0399170   7.6388991  54.8408699  84.4165325
   8.0475020  54.1492891  84.9371052   8.3464873  55.1758718  83.8657856
  20.5523634  35.1736450  77.5567436  19.9277592  35.6824279  77.0397902
  20.4967475  34.2886138  77.1963835 110.1818657  27.5676084  68.1003761
 110.7003593  28.3720660  68.0847406 109.2735863  27.8685474  68.1270695
 104.0195370  59.0270376  23.1363034 104.2836189  59.6097326  23.8483167
 103.1267643  58.7644053  23.3603621  41.3241243  55.1302910  80.3075027
  40.6326342  54.8578882  79.7042847  42.0168686  54.4808722  80.1867199
  24.6498895  40.3405952  68.1655216  24.9132204  39.4444036  67.9563999
  23.9156127  40.2393293  68.7711763  16.9724011  31.1577749  44.2497873
  17.0903206  31.9263124  43.6915064  16.7351305  31.5169263  45.1047373
  21.9543624  54.1512060  83.4508038  22.0093393  53.2275724  83.6959839
  22.8639984  54.4187212  83.3195400 110.9295654  64.1761208  89.6817398
 111.2166786  64.5980263  88.8719273 111.0334969  64.8505020  90.3530312
   0.3615071  45.7489014  53.1831789   0.9768909  45.2694416  53.7378454
   0.8980110  46.0852575  52.4653625 102.2898293  46.4293003  82.5423050
 102.9275227  46.1343288  83.1923485 101.5610886  46.7717457  83.0599022
 101.9511414  43.5462379  45.1478386 102.4921513  43.3781958  44.3762779
 101.0757637  43.7078667  44.7959709 106.6867828  41.6076612  37.1975946
 106.7627335  41.8449545  38.1218004 107.2881126  42.2011662  36.7477298
  95.7994747  62.0813847  40.8058453  95.5264854  62.1815252  39.8938799
  94.9796295  62.0129728  41.2951422  89.8860073  58.9760685  66.4362574
  89.8951054  58.1718397  65.9172535  89.1934013  59.5070410  66.0430717
 106.1292553  60.2839041  39.1081595 105.3403282  60.4651594  39.6190095
 106.8448734  60.3527355  39.7401237 107.4055290   1.3588576  26.6834211
 108.1824112   1.5057921  26.1438823 107.4797630   0.4476720  26.9670796
   9.5026380  67.2185278  52.5100565   9.4394708  67.1274376  51.5592957
  10.1945412  66.6076708  52.7637482   0.9563129  19.5830452  50.3653908
   0.7503179  19.8564386  51.2592888   1.0030532  18.6281121  50.4117489
 109.0116310  62.9387999  75.3299570 109.0773678  62.2164297  75.9545279
 108.2392025  62.7312279  74.8041201 113.5847378  50.3230095  70.7414103
 114.3316460  49.7309971  70.8301735 112.9730225  50.0404358  71.4212561
  86.7801762  68.4382629  27.4810600  86.5702248  68.6386824  26.5689301
  87.6918125  68.1473064  27.4586320  17.2530138  33.4209299  31.1252260
  17.8961051  33.3425784  30.4205799  17.1718156  34.3633676  31.2716842
  87.7056885  75.0641060  89.1447639  87.6794910  74.1627073  89.4657421
  87.6377583  75.6014538  89.9339867  14.2400599  57.7922058  47.7772570
  14.4713235  58.7208843  47.7946377  13.2889521  57.7841997  47.6697302
  95.3338528  52.4590540  60.8734369  95.9284592  52.0873976  61.5250111
  95.7997894  52.3647976  60.0426197  31.0154366  66.3945007   4.5485866
  30.5786538  65.5482960   4.4516405  31.3864088  66.5729475   3.6844295
   2.9660758  63.8736629  57.8865862   2.3520586  63.1657648  57.6914072
   2.4293283  64.6661377  57.8755379  10.9010231  43.9607620  46.0906696
  11.4415228  44.5644617  45.5811262  11.4310467  43.1669235  46.1622953
 109.5368671  81.5216446  79.5370340 109.8359013  81.0945702  78.7342787
 109.6927929  80.8745861  80.2249527 102.6167965  22.4399638  71.6812468
 102.1076202  23.1104183  72.1367359 102.4696255  21.6416550  72.1884680
 111.3884544  64.6807241  45.1167727 111.9076347  64.1367769  45.7090664
 110.5169392  64.2850971  45.1303005 112.0482731  75.6766272  10.4687393
 111.1191463  75.6615686  10.2391219 112.2953129  74.7537613  10.5280745
   4.5764154  66.6141367  57.8780365   4.5925161  67.5693226  57.8181028
   5.2361804  66.4044714  58.5390854  95.3273773  77.4452305  59.5076275
  94.9607372  76.6564894  59.1080093  95.3525162  78.0848026  58.7959051
  15.6694913  63.5683060  84.8532486  14.7445309  63.7527275  85.0165462
  15.9730494  63.1392574  85.6532478   4.7236755  52.9091167  34.2201376
   4.6328810  52.1135044  33.6957407   4.2906356  52.7010202  35.0480294
 103.3595753  69.8360443  38.2216287 103.6557579  70.5288649  38.8119721
 103.9839935  69.1232157  38.3565617 110.3215599  64.3475771  58.9167261
 110.2283001  65.2305841  58.5591793 111.2664700  64.2243767  59.0072203
  20.7906008  64.8563385  40.1309395  21.2998724  65.6137371  39.8424578
  20.0780630  65.2302027  40.6493473 112.5150585  59.3467712  39.0743923
 113.2730770  59.2521143  38.4976077 112.7648640  58.8865995  39.8756862
  55.3064632  98.3236599  12.2346675  54.5199060  98.7639523  11.9126439
  55.4292536  97.5856400  11.6376090  39.2642617 106.6170311  11.2672734
  39.9962759 106.9151020  11.8072176  39.5574117 105.7799149  10.9073627
  98.7809849  61.7408657  90.1591396  98.7465382  62.6183081  89.7781754
  98.3690262  61.8362522  91.0178757  99.8385334  43.4109688  70.7253075
  99.3634415  43.8074923  71.4555740 100.1661110  44.1552401  70.2203465
  90.6530285  89.8061848  59.7687960  90.8701515  90.3495216  59.0112495
  90.4243851  88.9549923  59.3953991  89.9606895  53.3640337  46.1009312
  90.6497860  52.7330971  45.8928537  90.3261948  53.8926506  46.8102980
  89.3559361  63.3654404  53.5627747  88.4657764  63.1953335  53.2547092
  89.8164177  63.6984825  52.7925301  18.9400554  59.7873306  72.4753475
  19.3173563  60.6635571  72.3972321  18.3228505  59.8563862  73.2037163
  52.6007414  86.8105507   6.4639276  51.9434929  87.4435425   6.1748296
  53.3573055  87.3445606   6.7061615 113.7296772  44.9802828  82.7052021
 113.3765125  44.4433260  81.9958496 113.9278698  44.3554354  83.4027100
  47.9414845  27.7533078   6.7886066  48.8010359  28.1495571   6.6458130
  47.5201225  28.3212256   7.4337059  12.9297972  68.1960392  75.3013229
  13.6727214  68.5397863  75.7974386  13.1520939  67.2787619  75.1418877
   9.0129972  86.1427021  59.9060297   8.8430631  86.0539436  60.8438301
   9.0428686  85.2425861  59.5817852  11.1703765 100.9500980  54.4640207
  11.0186720 101.8942451  54.5065641  10.3815663 100.5634022  54.8441172
 107.3822784  71.0866451  52.8643084 107.7290726  71.8053722  52.3357344
 106.4779472  71.3400364  53.0492592  99.9522400  76.8365288  84.4811535
  99.9559116  77.2712564  85.3339291 100.5921268  76.1301708  84.5696354
 101.4316559  57.0328617  50.3663778 100.8777237  56.8463278  51.1244011
 100.8155441  57.2558260  49.6685696  13.1618214  65.1710367  48.7150860
  13.3974898  65.4680729  49.5939827  12.5538754  64.4464588  48.8621330
  14.3850136  53.4069204  61.3694763  15.0773191  53.7980843  60.8366203
  14.1905916  52.5755215  60.9368086  90.7197952  56.9390774  58.5554075
  90.1047707  57.3846340  59.1380501  90.3544140  56.0609293  58.4477711
  16.7230868  43.0361176  50.2343082  16.6393209  43.2575226  49.3068409
  17.3872340  42.3471880  50.2570534  31.0626698  42.9523230  53.3390284
  31.7506599  43.6028719  53.4793472  30.9866023  42.8856564  52.3871899
 112.1565342  47.8650665  64.9503183 111.9494724  47.6774931  64.0347958
 111.3101959  48.0619287  65.3518105  36.1471725  35.9196949  53.4322643
  36.3625765  36.6791010  53.9736843  36.5359521  36.1153340  52.5797367
  15.2619159 101.2607193   8.2255065  14.9482310 101.8210316   8.9353520
  15.6566870 101.8668079   7.5985724 101.8545723  52.1994781  36.5848088
 101.6439533  51.4864206  35.9819651 102.7765179  52.0637703  36.8035173
  88.4857178  46.6256428  66.1712217  88.2653999  45.7286739  65.9199429
  87.7347279  46.9215727  66.6856861  67.1405458  43.2039928   1.9239083
  66.4328575  43.8416147   1.8298286  66.7267895  42.4461794   2.3371327
  21.3669348  14.1569555  89.3809128  20.5797720  14.6196616  89.0936661
  21.3247323  13.3118653  88.9333916  19.3361819  55.3658104  88.0498505
  19.1247749  54.4934034  87.7175140  19.5521140  55.8741045  87.2680283
  99.1074944  66.1840010  64.4166565  98.3933067  66.7002869  64.7902966
  99.8987961  66.5458345  64.8156071  68.6347818  63.8905811  57.4434471
  69.2653751  64.6106291  57.4327135  67.7797937  64.3207455  57.4298954
  88.6623192  97.1583462  63.9716053  88.5764122  96.8462563  64.8724079
  87.9142284  97.7426052  63.8481760  23.5076642  68.4357405   3.1862444
  23.5981083  67.5057888   2.9782903  23.0920792  68.4490538   4.0484190
   8.8420683  69.3966198  74.8441839   9.2229283  70.2165508  75.1586485
   8.7742031  68.8486576  75.6260824   8.9563680  42.2886896  48.8318205
   8.6793005  42.1031618  49.7290611   9.5543909  41.5739870  48.6131859
  43.8476515  84.5559692  49.0594387  43.0327749  84.9378777  49.3855667
  44.0014029  84.9971485  48.2240009   1.1593708  80.3714085  70.4028559
   0.2992516  80.4137135  70.8207512   1.2208541  79.4755030  70.0714874
  80.7171726  64.3209505  59.4161844  81.1209011  65.1755095  59.5677280
  81.4077759  63.7987900  59.0079641  87.7615261  64.6720839  75.9254074
  88.5660362  65.1618195  76.0961866  87.3770046  65.1020050  75.1615095
 102.4608612  70.8706665  82.0994949 102.1443748  69.9869299  82.2868061
 102.8204155  70.8136940  81.2142277  71.0946512  94.8727036  49.8257351
  71.1021948  94.6048164  50.7446527  71.2918711  95.8091068  49.8476124
  18.3913672  54.8696041  56.0776615  18.8580763  55.5530882  56.5585613
  19.0709972  54.4290066  55.5675554  92.2215176  45.0976467  19.5448565
  92.8856754  45.6519127  19.1350734  92.5086117  44.2034054  19.3600953
  33.2691312  36.3629413  36.3986874  33.4805512  35.6786704  35.7636237
  32.8172755  37.0336342  35.8866024   7.9238546  59.0614367  81.0783386
   7.9851788  59.0496778  80.1231766   7.9398859  59.9905491  81.3079548
  93.0813122  45.4522610  25.4741001  92.4522591  45.0224018  26.0535359
  92.7506161  45.2809525  24.5923281 103.0326176  36.0972476  37.0907044
 103.5277271  35.3094363  37.3153377 103.0826950  36.1475468  36.1361408
  34.4936037  55.5575895  84.7170830  33.6623621  55.6445646  85.1836681
  34.9505568  56.3814926  84.8862171 103.4907627  55.2779531  50.1151180
 102.8839111  56.0159445  50.0574112 104.2586994  55.6337357  50.5622530
   4.3534377  35.5477786  69.0942764   3.6111549  34.9879289  69.3219090
   5.0088346  34.9453092  68.7425470  91.6685772  53.1978273  72.1973515
  90.9269428  53.7883759  72.0652199  92.1825218  53.2751989  71.3935423
 100.2670097  48.2608366  30.8827877 100.3463173  49.1493654  30.5357218
 101.1544609  48.0312300  31.1583567 102.0673656  55.0285053  37.1147633
 101.9881439  54.0810204  37.0041704 102.2894955  55.1440620  38.0386329
   3.3304015  65.1375294  34.1329694   3.6188996  65.7460117  34.8132253
   4.1402480  64.7575855  33.7923455 112.8232193  16.3523924  70.6443119
 112.3800945  16.0474408  69.8525524 113.5076523  16.9401562  70.3244305
  81.7039108  47.5817299  90.5703545  81.0208893  47.0301819  90.1889133
  82.1340752  47.0192671  91.2144184 102.8297615  57.3867941  73.3657980
 102.4411011  57.7799940  74.1471910 103.5569382  56.8608665  73.6987400
  47.7830458  98.5884285   6.0230142  46.9009924  98.2168388   6.0111040
  48.1411076  98.3831406   5.1593697  59.8961926  37.6721931  86.3628006
  59.0860748  37.2729945  86.6799545  59.7652340  37.7623582  85.4189014
   5.4087782  41.7044210   0.6705187   4.8167971  41.0348749   1.0132982
   4.9900949  42.5342035   0.8994250  98.6544418  68.0737591  43.9751244
  98.2523346  67.3366308  43.5155821  99.5569611  67.7954245  44.1307497
  13.1752288  43.6311102  86.0747910  12.4307597  43.4251499  85.5094719
  13.5320985  42.7778053  86.3212585   6.4140362  71.9207764  33.7511587
   6.8120962  71.0504007  33.7663412   6.8436068  72.3679209  33.0219412
  31.3059855  50.4794216  58.4750032  31.2506866  50.5436373  57.5215626
  31.8558598  51.2190914  58.7333822  90.5989742  48.7344408  60.9860611
  91.0939503  48.1229687  60.4407787  90.2790928  48.2013798  61.7139053
 105.5343437  35.5499959  56.4753771 105.9783649  35.2071071  55.6998110
 105.3648663  36.4688969  56.2676907  12.6441813  45.5604744  44.6431589
  13.4812534  45.6518269  44.1879749  12.0301771  45.2850962  43.9624262
  69.2673779   8.2695115   9.0228361  68.3736849   8.1350422   8.7074614
  69.7910023   7.6316053   8.5379422 112.4472141  58.5372591  76.3023472
 111.9747448  57.7050686  76.3237858 113.2750320  58.3542061  76.7466831
  17.1260226  69.0832567  82.8119946  16.2665820  69.0909529  82.3906517
  17.5513530  69.8832226  82.5031567 105.0082016  73.1415081  34.4866180
 105.0442410  73.8252926  35.1554775 104.4534874  72.4615288  34.8688984
  96.7927551  71.2435341  57.9693079  96.9787502  71.6710567  57.1333265
  97.5620651  71.4269495  58.5085154   2.6339567  81.7033291  59.3590879
   2.9833889  82.3792648  59.9398136   1.9676431  82.1541977  58.8404560
  85.2889061  73.1408644  39.0393710  85.6361103  73.5579443  38.2508779
  84.3732166  73.4176302  39.0733051  72.3323059  83.3753395  59.6701431
  71.6582251  82.7085209  59.8013067  72.4530935  83.7671757  60.5350733
   5.4612803  76.3912630  55.6927204   5.5775237  75.4517269  55.5513430
   6.1767387  76.6354465  56.2798548  20.8253074  41.8279219  52.3338270
  20.3201032  42.5934172  52.6077080  21.7385173  42.1061468  52.4036217
   4.1411051  67.2615719  43.5501480   3.5656247  66.7117596  43.0183983
   4.8109967  66.6611242  43.8771582  35.2382207  36.2518716  43.8527155
  35.8153415  36.7947698  43.3156633  34.3942142  36.7027545  43.8284206
  97.0957565  20.6147432  74.5700073  96.5909100  20.8433962  73.7895727
  97.7276611  19.9639797  74.2643404  26.3615775  71.0112858  55.8859253
  26.6172171  70.3566551  55.2360487  25.7826304  71.6072416  55.4106474
   9.1996080  46.6624880  48.3220959   8.7342638  47.2369528  47.7140808
  10.0115800  46.4394045  47.8669405 101.3946247  39.5356369  40.4492188
 101.5860558  39.6090460  41.3842058 101.4881325  38.6023736  40.2581453
   5.3158748  38.4782076  90.7174587   4.5772302  38.5510635  90.1130295
   4.9903345  38.8461900  91.5389442 104.4533539  43.2317448  53.7116718
 103.4977818  43.2869577  53.7192917 104.7400093  44.0853405  53.3869553
  97.5247860  47.5371408  62.1761131  97.9856300  47.6786089  63.0030584
  98.1574535  47.0762968  61.6251326  78.6104250  44.6395111  72.8508615
  79.4168186  45.0589991  73.1508446  78.3193779  45.1784754  72.1153069
  84.0223408  57.8870344  60.9248114  83.4769440  58.5315990  60.4739189
  84.9203300  58.1505966  60.7238436 111.8998814  28.0802059  61.0937405
 112.3177242  28.6321688  61.7547894 111.6359901  27.2933841  61.5707159
  23.7900615  42.5884247  66.9541645  23.1430387  42.9001093  67.5869751
  24.1563225  41.7999744  67.3546982  21.3581014  29.4213605  66.3745117
  21.3281035  30.1305866  65.7323790  20.5033183  29.4510579  66.8042755
  83.5022831  59.0449619  79.1911125  83.4178352  58.0957985  79.1006088
  84.3103600  59.2590666  78.7248373 113.2891369  38.7407470  71.3195181
 112.5072575  38.2153964  71.1495018 113.8887501  38.1410718  71.7634678
  77.5479174  95.7024670  64.0682793  77.1997309  95.1240921  64.7468710
  78.4943628  95.5622101  64.0965176   2.7069744  40.8321810  70.9245062
   2.3205803  40.7198238  71.7930174   3.2550293  40.0567055  70.8040428
   7.0717669  21.4348745  64.5065212   6.2198210  21.0768294  64.2570782
   7.5483036  20.6883383  64.8696041   5.1628959  65.4794359  45.8388138
   4.2222631  65.4080343  46.0011196   5.5562872  64.8282290  46.4196777
   3.9429733  37.2340751  58.6131191   4.3922374  38.0744576  58.7033939
   4.1557923  36.9427371  57.7265167   6.2793100  60.2223825  59.0267086
   6.5115988  59.3062115  59.1780424   6.1109871  60.5743265  59.9007988
  86.7621040  53.2253838  55.3642941  87.3076248  53.9759541  55.5994225
  86.9835663  52.5561285  56.0118151 106.0675335  68.4645271  72.7658653
 105.6434536  67.8267002  72.1917915 106.9829559  68.4670687  72.4861622
 111.0368919  59.8334455  25.3274035 110.1668549  60.0116968  25.6844687
 111.4484119  60.6948805  25.2580309 105.0132656  56.5877676  51.6232157
 105.3427315  55.8605433  52.1512604 105.1112080  57.3559332  52.1858501
 100.7206059  41.2390518  58.6605215 101.4405155  41.1705685  59.2876244
 100.1945400  41.9725943  58.9789581  12.6845562  39.7176838  32.3676300
  12.6450300  40.3456640  31.6463041  12.3626876  40.2041197  33.1265855
 106.6633797  73.7534189  44.7779942 106.7099190  73.2432079  45.5865431
 107.2541904  74.4917727  44.9263620   6.9544673  62.6025486  45.4970026
   6.4935124  62.9162121  46.2750578   6.4651889  61.8259144  45.2255630
 111.0418701  66.4027405  69.5387697 110.3424835  66.4356661  68.8860798
 110.5882072  66.4653921  70.3793049  19.6216452  50.5015802  69.2124081
  20.1634431  51.0368681  69.7921991  20.2335310  49.8785591  68.8204002
 108.3465672  30.9665108  64.9461985 108.3948517  31.8640041  65.2754498
 109.1918945  30.8215117  64.5211887  96.6411018  71.9309139  55.1919127
  96.6555405  71.1580610  54.6273613  95.7842350  72.3271227  55.0336933
  62.2486353  70.6687117  75.5503464  62.1736526  71.6133690  75.4153299
  61.4180517  70.4178762  75.9546280 102.0458603  50.0750017  74.9097157
 102.1740150  51.0217905  74.9679995 102.8773689  49.7022581  75.2027702
   7.9346001  53.8369799  72.9941034   6.9856477  53.9423513  72.9261541
   8.1979603  53.4847593  72.1439171  14.2151856  80.6273937  56.6199493
  14.6554279  80.3300381  57.4161911  14.1530001  79.8437738  56.0737658
   6.8152285  87.8278637  33.4681964   7.5075024  87.2220516  33.2036543
   7.1118617  88.6822033  33.1546068 108.3859253  49.7581768  29.0385032
 109.1199970  50.1860237  29.4793224 108.7249947  49.5332766  28.1720805
   5.6319726  67.1812677  40.3475714   4.8003557  67.6543093  40.3771448
   5.3829056  66.2573242  40.3704834   2.8240195  50.8798075  73.4734583
   2.1826220  51.2610388  74.0730429   3.3598262  50.3107929  74.0260553
  24.3556023  89.8286247  66.7777920  24.9164319  89.8987579  66.0052729
  23.6274529  89.2750549  66.4956856  83.1537914  58.7573290  34.2578316
  83.3528709  59.5225239  34.7973466  83.7365532  58.8384438  33.5028195
 104.2119980  94.2858505  31.0143900 103.6455727  93.7408543  31.5606236
 104.3986320  93.7440681  30.2476621  19.2101145  48.2884741  56.7606592
  20.0364852  48.4961462  56.3245201  18.5366368  48.6340618  56.1747980
  28.6373091  16.2410820  28.4535122  28.2622409  15.8056557  29.2189908
  27.9280519  16.2485802  27.8107595  89.4042015  55.5388546  76.7156553
  89.9093723  54.7521925  76.5102148  88.6351395  55.2141190  77.1839762
  82.9815269  17.9614275   0.1467237  83.8947154  17.8516214   0.4117975
  82.6937813  17.0802467  -0.0919142 102.5628376  54.1266537  88.7747002
 103.1475735  54.3763065  89.4902325 102.9497528  54.5297003  87.9974747
  21.8423128  66.9578791  58.2572079  21.8925619  67.5129795  57.4790192
  22.4149251  66.2166166  58.0600309   5.0416261  97.9438496  26.2188101
   5.4109353  97.4709702  25.4730034   5.7450694  98.5264397  26.5051508
  61.0064554  97.7142715  64.6417284  61.9221258  97.5642776  64.4065952
  61.0459709  98.3054829  65.3934860 107.4033451  66.7940712  25.9705043
 107.9403591  66.6541147  26.7504168 108.0132866  67.1391487  25.3184915
 101.4385223  58.6146259  24.3906474 101.6555119  57.7831697  23.9689469
 101.4113808  58.4092999  25.3251719 112.1590328  54.7029448  43.7001371
 112.5024509  53.8113308  43.7577677 112.2581768  54.9386358  42.7777195
 112.7673054  88.0375767  46.7380047 113.1184769  88.8866615  47.0062637
 112.6227570  88.1250286  45.7958317   7.6611924  73.7869024  58.6699104
   6.9048750  73.2608318  58.9296436   8.3407038  73.1446314  58.4650183
   5.7141453  58.6888170  46.4542961   5.4848963  59.6153879  46.3825703
   6.5692854  58.6201000  46.0297441  22.4135947  84.9084473  64.5210123
  22.8938103  84.0928555  64.3780899  22.8363442  85.5403709  63.9394665
  73.7818718  59.9747849  57.4769449  73.6194563  60.8902931  57.7043247
  74.5297861  59.7225571  58.0184555 112.2810745  88.8726234  56.3512135
 113.1669044  89.0957355  56.0652637 111.8788433  89.7147560  56.5639448
  91.1285496  63.9142227  59.0004063  91.4956856  63.2926035  58.3718920
  90.2956390  64.1830254  58.6127901  99.8716354  45.7594347  45.2822018
  99.3414116  45.6941223  44.4879580 100.1435089  46.6766691  45.3139305
  76.6387367  73.1937885  66.4984322  75.8542395  73.1731796  67.0464897
  76.9658089  72.2943449  66.5144682  25.7687378  91.1397266  64.4277763
  26.2312484  91.2478065  63.5967302  25.0044703  91.7111015  64.3526173
  40.9297419  96.2596226  80.2713776  41.7173958  96.2478828  79.7275972
  40.3375959  96.8628502  79.8222542  27.5489736  22.1500087  77.9992247
  26.9046450  21.6598010  78.5098839  27.0253301  22.6793528  77.3977041
  26.4937711  68.0646753  66.4446449  25.6662035  67.5889874  66.5159655
  26.4213729  68.5492992  65.6223726  94.0103531  77.3403931  39.2263508
  94.4824886  76.5791750  38.8889146  94.2607594  78.0559397  38.6419511
  16.9474876  81.8542957  10.7516599  17.0935309  81.7195225   9.8153162
  16.2992084  82.5572586  10.7942116  83.3216476  39.5185089  74.0254641
  83.2637310  40.2901554  74.5888805  83.2457829  39.8648834  73.1363630
 111.3062000  72.1770096  61.4692450 111.4632130  73.0023813  61.9278765
 112.1810532  71.8329334  61.2890673  63.8230658  48.4883022  30.5974817
  64.1708612  49.2933989  30.2139568  64.3908310  47.7965117  30.2579260
  98.7183189  62.3169899  79.3857956  99.2028809  62.0222425  78.6147213
  98.3931446  61.5109921  79.7868729  33.7016845  53.6922884  65.2373838
  33.6125565  54.1401958  64.3961525  32.8022194  53.5024309  65.5041218
 105.2972794  51.6994810  45.9073734 105.5428410  52.3528910  45.2524090
 105.4286289  52.1405554  46.7466784  92.6437950  45.5416489  53.6220837
  92.9851437  44.8916388  53.0079174  92.9583740  46.3797569  53.2831955
  90.1161766   4.1600442  13.2395065  89.2289639   4.1520557  13.5987031
  90.5696297   3.4576720  13.7056470 112.9825687  41.7919588  28.0571389
 113.6665726  41.1231661  28.0900240 112.1738911  41.3005924  27.9128146
 103.7112904  46.1294127  78.9621449 104.5387840  45.7618427  78.6516953
 103.0784512  45.9044743  78.2801294  15.2294660  57.1542931  72.1389294
  15.8848393  57.1772289  72.8362036  14.6663475  57.9081297  72.3146152
  34.7162724  95.5318069  35.2190924  35.5511141  95.5779743  35.6850743
  34.8941302  95.9334946  34.3686557   5.7349592  67.8415537  49.8694658
   6.0178304  67.8052282  48.9557362   5.3508329  66.9807100  50.0356770
   8.9831662  62.3858213  74.5418692   9.7252572  62.6622438  75.0795698
   9.2295986  62.6301479  73.6497879  90.3393173  73.1833744  34.6558285
  90.5599880  72.7856684  35.4980659  89.6020794  72.6656389  34.3323088
  30.9388232  85.2946663  66.4935970  31.2947822  85.1492214  65.6170273
  30.0314355  84.9953365  66.4363289  27.1744347 101.8640995   3.1752643
  27.0186043 102.7546120   2.8607178  26.3068748 101.4599133   3.1896323
  16.1013842  77.3105001  35.3282046  15.7237661  78.1871986  35.2572751
  15.4685175  76.7410088  34.8907208  27.2776270  77.2245312  41.3728762
  28.0778122  77.7250242  41.5323973  27.5586390  76.3098049  41.3960171
  12.0086527  87.4964142  82.5195885  11.1390364  87.1098709  82.4167156
  12.0802951  87.6789856  83.4564781  32.9159808   3.0461958  36.1606312
  31.9918227   2.9332504  36.3829064  32.9553866   2.8951028  35.2162552
  90.2134037  56.7497635  48.2336187  90.3917027  57.1926880  49.0632296
  90.7118416  55.9342337  48.2855511  67.1007776  76.9115305  37.5059915
  66.7766094  77.3509026  38.2921839  68.0427265  77.0817137  37.5076628
 104.6873474  51.2898874  53.6327982 103.9583206  50.8959627  54.1119289
 104.2749500  51.9311047  53.0540037  92.3160744  62.3309565  51.5060234
  92.4261189  62.4785280  52.4453545  91.8967056  61.4726162  51.4459372
  25.9387708  57.0243168  82.9078484  26.6721225  57.0150328  82.2927570
  25.6530738  57.9377031  82.9261589  94.9774647  84.6533394  68.3792400
  94.1682053  84.1532898  68.4853935  94.7774887  85.5137348  68.7479782
   8.4964514  99.7649193  48.4181213   8.9309585 100.1831722  47.6748228
   8.5004532  98.8319969  48.2039452  99.7361183  64.0157080  81.7183971
 100.1029015  64.8432827  81.4072323  99.5725250  63.5115099  80.9213734
   0.9816723  97.1130657  57.4306917   1.7120758  96.9985676  58.0386686
   0.7730609  96.2261772  57.1371984 113.4147835  61.9730091  23.6157036
 112.5534725  61.6523361  23.3482456 113.9555645  61.1854744  23.6755991
 100.1175976 101.5250301  40.4363680  99.9162960 100.6066418  40.6160498
 100.1158237 101.9434834  41.2972498  82.7020550  46.0066700  20.9400487
  82.4143410  45.6862164  20.0852013  83.5534477  46.4099455  20.7705140
  93.8239765  50.7907486  67.6460218  94.2648983  50.8882856  66.8020391
  94.4499397  50.3120136  68.1893587  14.2692852  72.4801254  75.0459003
  13.5048699  72.4666214  74.4699526  14.8889065  71.8767500  74.6357298
 104.1262245  74.8742914  56.0777521 104.0583992  74.8886871  55.1230669
 104.1139507  75.7968426  56.3326788  27.0902133  82.8682613  71.2148285
  26.3245010  82.7460766  70.6535959  27.7942204  82.4016571  70.7644081
  72.9374838  57.3251486  57.6113892  72.8803062  57.0156765  58.5153770
  73.2526064  58.2258987  57.6860762 105.9877777  84.3037128  64.7669411
 106.4291573  83.5513210  65.1610518 105.3001118  83.9199829  64.2227936
   7.5081211   1.9642013  79.9977493   6.8822807   1.3712345  79.5818806
   8.3571130   1.7069107  79.6382380 110.1855946 103.4283733  59.6643639
 110.4148579 104.2176342  60.1550198 109.4643879 103.7002659  59.0967560
  40.7418776  31.0310340  43.6910391  40.2753592  30.2443910  43.4085798
  40.3523064  31.7381573  43.1767988  93.7668419  88.9828587  49.6134663
  94.4832611  89.3785286  49.1170502  93.2255268  88.5529041  48.9513874
  67.1284676  90.0763988  67.0180750  66.4977407  89.3569851  66.9886637
  67.8391361  89.7494507  67.5696993  27.2522402   1.2135686  52.0714903
  26.4558101   0.7879434  52.3889399  27.4656940   0.7491705  51.2621689
  32.0861721  76.2645340  21.9199896  31.7425537  75.3836918  22.0692396
  31.4264965  76.8461704  22.2978282  77.0340395 102.0660114  23.6459327
  76.6102409 102.9239273  23.6211777  76.5785933 101.5544987  22.9772353
 105.5931854  31.7182970  54.3371344 105.6497097  32.0562625  53.4433699
 104.9456692  32.2788191  54.7646523   8.5796821   4.6954310  37.4509263
   7.9084337   4.7137257  36.7687798   8.7613815   5.6174326  37.6329446
  89.9650764   5.8818191  22.2966576  90.8656597   6.1641878  22.4561453
  89.8986053   5.0338697  22.7357435  77.3713541   7.6757085  23.2895780
  77.6995707   6.9429606  23.8107204  77.1162987   8.3340394  23.9359355
  93.9441490   8.3929187  37.9940486  93.2304668   8.9052403  38.3740759
  93.5904026   8.0663162  37.1667480  79.6373320   1.0655507  36.6853285
  79.8130989   1.8600178  36.1811852  78.7373400   1.1716609  36.9935226
  49.8013020  80.7402039  59.1583300  50.5631924  81.2766075  58.9392090
  50.1553774  79.8590946  59.2788029  39.0825105  87.1746159  54.7924995
  39.4975090  86.3618946  54.5035362  38.2409596  86.8980408  55.1551676
  89.7387695   5.2509761  51.5222073  89.4113064   4.4936192  51.0370159
  89.9604416   4.9042031  52.3864079  96.5060616  25.2812457  24.9231029
  96.6381454  24.7075009  24.1683841  95.9226894  25.9688687  24.6020317
  79.7668982  16.3810992  71.4221525  79.3107224  16.4090323  70.5811071
  79.5993185  17.2381449  71.8141031  93.0056381  16.3927436  61.1353827
  92.6782513  17.2520554  61.4011526  92.5160503  16.1856115  60.3393698
  93.7309647   8.7792379  50.9378576  93.3916950   7.8866494  50.8713913
  93.9135551   9.0340358  50.0334406  57.2474384  43.6435223  34.5105767
  57.9991055  43.5585737  33.9240527  56.8053961  44.4410658  34.2194438
  32.2247720  83.7818813  24.5769596  32.4550605  82.8658867  24.7323442
  31.3717175  83.7443256  24.1443872  54.8078871  10.3335500  70.3230762
  54.1632271  10.9031940  70.7427788  55.2875662   9.9377930  71.0507536
  71.3636875   6.4450532  20.9655428  72.2865438   6.2199211  21.0833883
  70.8883333   5.7636386  21.4408779  46.2993145  14.7118926  55.2658701
  45.9915638  14.7452641  56.1716366  47.0327854  15.3263450  55.2393293
  76.8238163  20.2703357  71.7748356  76.9201469  21.2222695  71.8026495
  77.2158003  20.0142241  70.9399748  54.6713161 102.5660515  45.9895134
  55.5112600 102.3604298  46.3999414  54.0609264 102.6498318  46.7220688
  47.5857067  16.7181087  21.2523293  46.8097258  16.2061036  21.4802194
  47.3556852  17.1478295  20.4285216  78.2841730  31.3812804  70.1489592
  78.9454699  32.0710802  70.0933170  78.2525969  31.0081315  69.2680550
  89.2750359  28.3640432  31.3428688  89.6007156  28.9038515  32.0631242
  89.9857998  28.3659363  30.7017493  89.5872402   7.3250854  13.4976327
  88.6543560   7.5283337  13.4293473  89.6645832   6.8251073  14.3102038
  72.6794529   9.4615102  32.3555994  71.8286943   9.4488209  32.7941012
  72.4701643   9.5900589  31.4304471 109.7178936  76.4687443  70.9651661
 109.8960400  75.8380079  71.6627836 109.4767952  75.9303665  70.2113390
  68.3314419  12.8360236  60.3409243  67.6860046  12.7578533  59.6384096
  68.2885504  11.9971967  60.8000135  57.7677455 107.5826295  38.6565375
  57.8529468 106.9010079  39.3231440  57.8544536 107.1165690  37.8249717
  72.7352810  22.1366692  53.4841251  73.5077429  21.6212177  53.2520771
  72.9851675  22.5946474  54.2866516  92.5516701   4.1363540  82.5812817
  92.2670650   3.5504344  83.2826614  92.1524429   4.9792656  82.7965736
  66.4555407  16.2580812  27.5253105  66.8184090  16.1367595  28.4027147
  66.4940500  17.2032142  27.3787761  83.4598446   2.9337361  52.9316902
  82.5936031   3.3082134  53.0917931  83.4200954   2.6150987  52.0299578
  43.0803585 106.6354370  48.1314039  43.9160633 106.5957451  47.6663780
  43.2633638 106.2461758  48.9865160  72.3588276  86.2048721  83.1996441
  72.0219183  86.9551277  82.7099133  71.6252422  85.9283733  83.7488556
  56.6925621 104.2963982  34.5815206  56.4118099 104.8773575  33.8744903
  57.6487064 104.3340683  34.5570612  60.0490665  22.8800821  53.2746887
  59.2069244  22.5487947  52.9627943  60.4969788  22.1080184  53.6204147
  80.3078938   2.5822383  41.4238834  79.5729351   2.3964252  40.8394623
  80.0572109   3.3883122  41.8751431  42.3545742  79.1171122  30.8320022
  41.8103600  79.1822958  30.0472641  43.1832504  79.5267010  30.5834866
 106.5226841   6.2634003  30.8158636 106.2893677   5.6262171  31.4909863
 105.6824303   6.5649480  30.4704976  84.0649986  94.6795464  67.1042204
  83.5422611  95.3725815  67.5075483  84.2253208  94.0569496  67.8133821
  88.8148403   9.0051794   7.9089427  87.9607868   8.8816607   7.4947429
  89.3384552   9.4578797   7.2477883  91.3157272  39.4991803  72.0085669
  91.0947609  39.2628741  71.1076975  92.0439816  40.1144505  71.9230366
  86.7701721   9.2100024  55.6561041  87.3317814   9.8786569  55.2640200
  86.4518356   9.6092516  56.4657259 102.0594883  75.1203489  85.1030731
 102.8241634  75.4723263  85.5587292 101.7465115  74.4152975  85.6697941
  66.5927267  17.7574432  69.7909546  65.6545115  17.9463899  69.7742414
  66.7212677  17.2534311  70.5944967  33.1315947  31.7404389  69.2816114
  33.5967755  31.0793757  68.7689352  32.2323632  31.4161348  69.3310308
  60.0539780   4.8894191  86.7123032  60.4713345   4.4339728  87.4434757
  59.9953890   4.2296875  86.0212421  86.8822956  13.0890453  47.3486137
  87.4742985  12.3371172  47.3295021  86.8458557  13.3418036  48.2711172
  37.7407098 103.2107830  68.6200190  37.1837044 102.4885082  68.9103651
  37.1307921 103.9262199  68.4400606  53.1758881  93.1152630  32.5386810
  52.7483702  93.9208889  32.8292489  53.0234146  92.4932003  33.2500386
 113.3654022  11.4152515  55.9584904 113.0227947  11.4091241  56.8522549
 114.3144798  11.3514781  56.0653543  73.4580898   1.6078508  74.1868353
  74.0686369   1.3482238  73.4968662  73.6573124   2.5300449  74.3483925
  76.7471790  23.7025118  28.0531216  77.1742868  24.2112350  28.7423325
  75.9408188  24.1829586  27.8655577  32.0517087  93.5741234  59.6171856
  31.9501948  94.3914604  59.1294622  31.5686560  93.7191010  60.4307413
  76.9013023   5.5366611  20.9502935  76.5210724   5.8970320  21.7514110
  77.8044558   5.8537471  20.9501386  50.7759953   9.6026528  23.9817119
  50.7262659   8.8832641  24.6111846  51.1625957  10.3261888  24.4749284
  50.1263523 102.7157688  50.7328606  51.0339451 102.4963856  50.9435320
  49.6049690 102.1603966  51.3124800  13.8930190  41.8271923  48.7551260
  13.8944590  40.9521627  49.1431332  13.2899833  42.3306990  49.3019915
  98.2696915  21.4012718  71.2149143  99.1595268  21.4351749  70.8638144
  97.9692078  22.3098469  71.1940813  68.7958765   1.0687622  65.0157022
  68.8191938   0.4142919  64.3175936  67.8678560   1.2821311  65.1130772
  90.9364796  17.4011910  37.7505803  90.3634739  16.6424191  37.8608918
  91.8220997  17.0398176  37.7868533  20.1116443  27.1005177  40.8318615
  20.6510401  26.6708851  41.4957142  19.5474315  26.4046955  40.4946280
  99.2284679  39.7774196  51.1064911  98.9887238  38.8640070  50.9501934
  99.4637680  40.1145649  50.2420807  19.0412319 101.8985748  28.1442261
  18.7182260 101.1968708  28.7094760  18.3775198 101.9790077  27.4592066
 102.1472263  21.9404292  67.4890852 102.0719051  22.1885943  66.5676880
 101.7512512  21.0702324  67.5359011  81.4223385  39.6729684  22.5756168
  81.6530037  38.9759660  21.9614410  81.9851017  40.4065228  22.3277760
  62.9345608  20.3263402  46.2945938  63.8321543  19.9940407  46.2828064
  63.0056429  21.1941648  46.6921616  66.1406469  77.1254873  52.4028540
  67.0557833  76.9412947  52.1911192  66.1588573  77.4103403  53.3165073
  40.0648308  17.2780991  84.7140408  40.5849648  16.8315935  84.0459728
  40.2269602  16.7808878  85.5157471  55.7985449  95.1946831  42.5344563
  55.4970217  95.2109432  43.4427834  55.1107645  94.7255135  42.0621490
  57.0349026   9.4215524  39.0661097  57.1246719   8.7722319  39.7636461
  56.3691282   9.0564758  38.4832740  57.0492601 105.0140762  19.9225414
  58.0049849 105.0552750  19.9561453  56.8434858 104.0929508  20.0819683
  48.8910723 104.4859409  67.6151323  49.6255207 103.9505577  67.9154301
  49.1011858 104.6914291  66.7041636  51.8477106  96.9480419  24.5533538
  52.2346973  96.8155479  23.6879516  51.0838556  96.3713074  24.5649958
  65.9617758  26.1151242  39.9948788  66.3355160  25.3313637  40.3977060
  66.2701035  26.8365264  40.5432796  91.8727112   5.1212436  42.6142550
  92.1816158   4.3160868  43.0296230  91.8742847   4.9234426  41.6777134
  96.6282368  19.5963109  15.7133150  96.0592461  19.8315346  16.4462233
  97.4684048  19.3852592  16.1205018  48.9491653 105.6404018  46.3617420
  48.1122971 105.3677940  45.9854937  49.3965006 104.8202705  46.5703249
  43.5731030  88.0441761  28.5176349  44.3550110  87.4945641  28.5703325
  43.2873631  87.9675198  27.6073003  92.6200962  12.0948446  60.4366922
  92.8192902  12.5946820  61.2283468  93.4719372  11.7869508  60.1271629
  53.7546015  89.4804859  72.7788687  54.0092421  90.0697613  72.0688391
  53.2476950  90.0303364  73.3763075  97.1956444  12.2085488  64.8163986
  97.9731750  12.1847677  64.2586231  97.1394157  13.1177831  65.1102686
 103.4121895  48.6265802   0.5674214 104.3198776  48.7423897   0.8483385
 103.3925343  48.9688396  -0.3262809   1.2131125  38.6364436  50.6748962
   1.7727357  37.8755617  50.5196142   0.9218810  38.5385442  51.5814447
  98.7994576   9.3138176  70.5371094  99.6198750   8.9749092  70.1789379
  98.6152363  10.0952172  70.0158501  93.0504036  46.5654898  56.2972641
  92.5402069  46.2158203  55.5667448  93.9574718  46.3493538  56.0810614
  87.1003914  34.4983101  47.0640945  87.5307178  34.2796898  46.2375021
  86.7695808  35.3870773  46.9341612  48.8108873  84.5996952  17.9538929
  48.7775660  85.5560875  17.9747701  47.8940010  84.3290901  17.9057050
  60.9738111  10.6048918  47.7196980  61.2164116   9.7567922  48.0913258
  61.1544275  11.2332320  48.4188414  82.7283859  11.7524755  26.8198943
  83.4776688  12.3403442  26.7239213  82.7097034  11.2530255  26.0035419
  53.2365751  98.9518547   1.8175972  52.3920059  99.3286419   2.0645112
  53.5126781  98.4568214   2.5889233  91.9198799  17.6908100  32.8676105
  92.7317715  17.5157571  32.3917794  91.9838715  17.1526325  33.6565995
  31.5107393 103.1111908  61.1361742  31.3878345 102.2105789  60.8361149
  30.7354045 103.5762787  60.8218765  76.9887543  93.7435246   5.4440260
  76.4100027  93.2465458   6.0222024  76.4203644  94.0395832   4.7330254
  61.7002535  19.7503448  14.0103805  60.8429384  19.5950353  14.4067597
  62.2776890  19.1135085  14.4313812  39.3110657  91.3646221  23.0244970
  40.1103449  91.0869122  22.5769949  39.0603757  92.1770859  22.5848484
  21.8260407  27.7167153  20.7779789  21.7131329  27.4109936  19.8779690
  21.3689327  27.0662165  21.3110209  88.5524368  32.6290131  52.5200415
  87.7195454  32.2458792  52.7952337  88.3209419  33.5010695  52.2004175
   6.6925246  55.4837513  43.4354305   7.0827401  55.8262491  44.2395830
   6.0546988  56.1488819  43.1765604 110.3606415  25.4144931   2.0423247
 110.9015465  24.6373892   1.9017582 110.9822750  26.0959387   2.2981206
  62.3512697  40.5705404   5.1970100  63.1686687  40.8674335   4.7970775
  62.5001478  39.6442533   5.3869104  10.8393466  32.7233815  31.3469315
  10.0015032  32.2635198  31.2942386  11.0349596  32.9691339  30.4427338
  16.2059569 106.8190384  44.8450422  15.3189194 106.5002537  45.0116873
  16.1743367 107.1586704  43.9506817 103.1521893  10.1475275   8.7819296
 102.8762722  10.7587099   9.4649792 104.0469742   9.9073875   9.0226096
  14.8774469  14.6229434  48.7836266  15.3871310  14.8413289  48.0033970
  14.7790694  15.4551899  49.2461443  95.8917904  19.0389693  38.1571722
  96.0194969  18.0999100  38.2916760  95.8278275  19.4009984  39.0409565
  75.3726864 105.6589222  62.5875998  75.1293755 106.1943436  63.3428144
  74.9953365 104.7988319  62.7722311  31.7295504  92.1344471  39.3841267
  31.8041778  91.2183285  39.1169333  32.5762272  92.5195694  39.1581893
  76.4926577  23.5641575  41.0597992  75.9629583  23.0048299  40.4916430
  76.2310505  24.4556642  40.8295631  22.1809506   6.7892271  51.8093061
  22.3022699   6.0128266  51.2627602  22.4720168   7.5168753  51.2597227
  76.2229013   7.6475406  42.5742245  75.4765129   7.2630095  42.1145821
  76.4985704   8.3751220  42.0166779  95.9578800  15.0434160  46.2589169
  96.8650818  15.3305781  46.3625622  95.9883690  14.4063401  45.5451679
 106.8958569  77.6133347   2.3394293 107.2905731  76.7505646   2.4661548
 106.2525749  77.6882887   3.0442688  29.1373849 100.0930119   2.1465288
  29.7246623 100.2161217   2.8923053  28.3995962 100.6765175   2.3237827
  95.9296513  30.8961558  68.0021572  95.8090782  29.9814391  68.2570839
  95.1208115  31.3293862  68.2747841  89.3414211   5.5601436  36.9267607
  90.1723862   5.7401443  37.3664355  88.7745953   5.2164900  37.6172996
  11.0369086   1.6508976  50.6834936  10.6886768   1.4282738  49.8201275
  11.4524710   2.5044858  50.5613232  54.2164755  13.5177398  27.6959300
  53.4055662  13.7170756  28.1638241  54.4297981  12.6219606  27.9572821
  83.0005074  37.0467329  15.4962397  83.7591171  36.8915510  16.0589576
  83.1782246  37.8912139  15.0821161  79.9629021  20.7888103  57.2133207
  80.0487328  21.1407232  56.3273048  80.0292206  19.8404431  57.1018219
   3.2582834  35.3508139  18.0210400   2.5675130  36.0134292  18.0243528
   2.8383130  34.5652533  18.3713949   1.7595796   2.9456064  30.6257272
   2.5647601   2.9346663  31.1432171   1.7511368   3.8097420  30.2141070
 103.5122871  49.9418688  45.0913858 104.3308544  50.3769588  45.3298378
 103.4511757  50.0500631  44.1422844  89.3656921  61.7439175   1.7995857
  89.9424744  62.4636745   2.0555332  88.5448170  61.9196701   2.2594766
  54.7186327  91.5108967  85.7910824  55.5399132  91.0265350  85.8754539
  54.8200989  92.2588062  86.3797951  97.0978642   3.5032293  69.8978615
  97.2665596   3.0485931  70.7231379  96.5307236   4.2355129  70.1393986
  85.7894802  16.7075622  55.3531933  85.8424282  17.4588490  55.9439564
  85.4170799  17.0631516  54.5462847  44.5543098  87.1375942  39.7193956
  43.9249849  86.6577435  39.1809511  45.2754307  86.5220356  39.8509312
 104.2300797  90.5020332  51.1601067 104.1655731  90.6229687  50.2127743
 105.0995255  90.1249790  51.2947750  99.8074818  35.9169126  68.6182880
  98.8764763  35.7169294  68.5209560 100.2105331  35.5754662  67.8200436
 105.5062675  53.9764166  75.2239084 105.4565716  53.8043213  76.1641979
 105.8475399  53.1642723  74.8494816 100.4355431  18.8538861  83.6430645
 100.2942276  19.8001647  83.6144733 100.4825115  18.5908520  82.7239132
  89.6453953  10.2261817  52.7484751  89.4553757   9.4290173  52.2538471
  88.7888908  10.6284726  52.8926563  99.1697884  51.2208128  32.9273939
  98.3653641  50.7302523  32.7586651  99.4632912  51.5046453  32.0616412
  72.4411678   8.7863457  13.6661279  72.5241852   7.8759277  13.9498174
  71.4986229   8.9531755  13.6691940  84.6213913  29.9316216  23.5872149
  83.8129616  29.5753789  23.2187557  84.7797680  29.4052601  24.3708539
  90.0035000  47.2239685  80.8198071  89.0785980  47.3915815  81.0005951
  90.0926495  46.2734461  80.8890343  69.5745325   3.7633872  30.8494854
  70.1655340   3.9649147  30.1239967  69.8736048   4.3244931  31.5649915
 105.3574657  40.9200859  24.8622656 104.9404144  41.7777348  24.9443865
 104.7465515  40.3153849  25.2834010  97.5591183  95.7522678  37.4287415
  96.8215275  95.1421928  37.4285936  97.1597862  96.6108131  37.5689387
 113.1351185  20.6721592  13.1849408 113.3364582  20.5341792  14.1104960
 112.2727776  21.0876203  13.1867695  92.9744434   2.5398791  37.8577590
  93.9101696   2.4037689  38.0065036  92.7612782   1.9599256  37.1266985
   5.6650299  28.9409018  58.2104826   6.0408986  28.0694294  58.0860186
   5.3070420  29.1719913  57.3533535 100.4752445  12.2378492  45.5034637
  99.7557354  12.0497763  46.1060953 101.0774994  12.7812243  46.0116625
  99.1361332  27.9857039  23.5892820  99.2035675  28.7251329  22.9851866
  99.5085812  28.3111978  24.4087768  58.9979792 101.7753506  25.6447291
  58.6438560 100.9289742  25.9176564  58.4229898 102.0573997  24.9333405
 110.5964375   8.6629367  41.4013243 109.6557999   8.8204128  41.3198137
 110.9755421   9.5336378  41.5212917   4.6611914  46.9722271  47.6358986
   4.2941067  46.2036848  48.0727386   5.5288595  47.0778656  48.0260611
  92.2072601  18.7761772  43.3126068  91.6057873  19.3000507  42.7834368
  92.8543949  19.4047284  43.6325550  73.3997631   8.6079252  28.9236093
  74.3064356   8.9112109  28.8767409  72.8982115   9.3880111  29.1605473
  96.3682842  32.7256870  28.7821960  96.9876480  33.2249188  28.2498503
  95.7277489  33.3737516  29.0753746 103.2657146  31.1031699  58.8688946
 102.5329781  31.3227248  58.2934713 103.6040974  30.2778959  58.5215425
  73.1601286   4.0373319  39.9765468  73.3708572   3.3599466  40.6191778
  72.2043753   4.0291581  39.9245834   8.1183046  33.7707567  91.8932819
   8.2765764  33.3900261  91.0294437   7.1960282  33.5862422  92.0710278
  71.9675398  27.8358030  62.0461702  71.5384626  28.5043144  61.5121174
  71.2682199  27.4841189  62.5970840  33.9158249  25.2597237  29.2801237
  33.2723498  25.5664062  28.6412811  33.3935070  24.8394752  29.9633551
   6.3985044  63.0224085   2.9204708   6.6656333  62.1124649   2.7905878
   5.8146411  63.2079363   2.1850011  71.3407707  11.3641667  34.8098898
  70.6500721  10.9533894  34.2898607  71.2360811  10.9905481  35.6849217
  99.1040230  32.3551893  86.7161942  98.2753277  32.7320576  87.0119476
  99.7299862  33.0769300  86.7752743  54.1627407  33.2771707  40.6082058
  53.9363718  33.2275724  41.5369272  54.4779205  34.1726923  40.4859972
  99.7567558  23.8164449   7.1505916 100.5032730  23.6601067   6.5722358
  99.3803978  22.9484081   7.2958481  95.2159500  44.5058870  67.1562338
  95.5196571  43.7162590  66.7084789  95.7218170  44.5302153  67.9684782
  88.2845974  20.8620405  56.8452215  88.8896275  21.4682651  57.2726154
  87.8064823  21.4037013  56.2173367  83.4235668  11.4386868  76.5161276
  84.2619038  11.0154247  76.3310146  83.3344173  12.1027422  75.8325243
 101.7917538  25.0531340  28.5491562 101.1175346  24.3747377  28.5871530
 101.3463020  25.8499169  28.8371468 110.2820110  34.0856767  50.8762598
 110.7474518  33.5623169  50.2238083 110.0986195  33.4728885  51.5883636
  84.3166065   9.8141098  28.6017275  83.6319828   9.4161922  29.1394877
  83.9244747  10.6240797  28.2755184  84.3530846  24.3749619  41.5061140
  84.3526840  25.3301930  41.5674639  85.2154636  24.1580772  41.1518431
  41.9433165  91.4238739  52.2412920  41.1779499  91.9161892  51.9445372
  41.6073036  90.5466557  52.4251699  70.4950094   5.6093740  32.6887131
  70.5536985   6.3022327  32.0308900  69.9783373   5.9943312  33.3965898
   1.6191542  13.4218156  39.8806572   2.2955287  13.5941029  39.2256260
   1.3051981  12.5412953  39.6748757 112.3819828  30.8059549  38.8327003
 112.2489738  31.7280555  38.6129928 113.3206367  30.6636333  38.7106156
  66.2425327  28.2311630  37.9891968  66.4928055  27.3714972  38.3276796
  66.6230536  28.8528967  38.6095834  81.2573719  64.7113657  11.1520171
  80.6176472  64.0409470  10.9121919  80.7911873  65.2784348  11.7662895
  90.4860401  30.4044008  41.9395685  90.4186726  30.3928781  42.8943253
  90.1678276  31.2712407  41.6874552  95.3682613  25.2272677  46.1467028
  96.0732555  25.7828116  46.4792347  95.0987244  24.7045684  46.9019318
  73.0849791  24.1282725  18.4187126  72.3665714  24.6014977  18.8384545
  73.8115740  24.7513843  18.4136033  36.1085558  97.8889656  48.2698441
  36.0066986  98.1715488  49.1786909  35.8020759  98.6332417  47.7518225
 109.3741131   2.4132630  29.5818901 108.9999676   1.8199396  28.9305735
 109.4654560   3.2474750  29.1214800  89.4850349  51.3347197  69.5456505
  90.1538944  50.6999111  69.2889929  88.6914158  51.0403776  69.0987062
 104.1742325  38.5299444  56.4863873 104.8922920  38.4248996  55.8622217
 103.7202835  39.3218422  56.1981773  94.4696999  42.4059057  25.7988429
  94.5584297  42.1601534  24.8779917  95.3566647  42.6423407  26.0701752
  70.4900789  29.6261954  41.7160225  70.8905268  29.0001011  42.3192501
  71.0856581  30.3755355  41.7183447 110.3229046  30.4171467  11.8071795
 109.7595787  30.1200795  12.5217748 110.9728050  30.9773040  12.2315431
  51.2883568  80.8178520  32.4622941  51.2959099  81.5538406  31.8503261
  50.5179119  80.9694290  33.0097103 113.2891178  40.6635857  43.1706095
 112.5280094  40.0976276  43.2995939 112.9583931  41.3944149  42.6483727
 112.6058388  30.9604669  69.5676708 112.5292492  30.3756618  70.3215742
 111.9795036  30.6147218  68.9317465  68.0083132  29.6171141  58.6469793
  68.1562710  28.8553977  58.0865097  68.1195831  30.3683925  58.0643749
 107.5161266  14.8043597  43.3646631 107.8795624  14.5124412  44.2006826
 106.9332218  15.5274022  43.5963106  12.2756350 105.4902840  40.2702951
  11.8093407 104.6544361  40.2576923  11.7483032 106.0670853  39.7176218
  99.2267799  41.0496426  29.1121578  98.9467525  40.5742788  28.3299541
  99.7522926  40.4168415  29.6016836  23.1700873 105.6429195  30.3548646
  23.1188917 106.0524082  29.4911933  22.3937607 105.9597588  30.8165550
  96.2613297  35.9559131  34.0081334  95.7197094  36.6623783  33.6562896
  97.1355152  36.1271381  33.6578417  24.6572065  57.9527140  55.9054899
  25.1611876  58.7506914  55.7459116  25.3159237  57.2924423  56.1208105
   5.5519605  12.0261800  34.3159199   4.6197730  12.2383225  34.3633914
   5.9929717  12.8748906  34.3537450  91.1305141 101.8045044  64.2866802
  91.9506264 101.6069794  63.8343096  91.0915470 101.1681747  65.0006819
  88.5104656  34.2788649  68.8463068  88.0731392  35.1274681  68.7766266
  88.3416367  33.9954829  69.7448778 113.3456707  31.2467313  21.7426324
 112.7425003  30.8011341  21.1477733 113.2326794  32.1766782  21.5460062
   1.7304762  26.6766763   7.6962882   2.3614824  26.9891834   8.3446729
   0.9776663  26.3901758   8.2134205  69.1512966  31.1962533  37.2504020
  68.5988092  31.2367606  36.4697933  69.8086166  30.5316329  37.0443821
  98.2926273  50.7493019  48.7231731  97.9604244  51.6457748  48.7702322
  97.5402355  50.2028418  48.9501333  64.7727537  31.7363024  19.1592574
  63.9726019  32.2549248  19.2430627  65.3828287  32.1352410  19.7796500
  87.7905273  17.6873624  71.2849092  88.0500031  18.5641587  71.5679789
  88.4551716  17.1086025  71.6584253  98.9649773  11.3945568  47.8434277
  98.1468773  11.8874180  47.7799368  99.0203762  11.1399889  48.7644911
  45.7320547  96.0266018  33.0858088  46.4302826  96.5443325  32.6849818
  45.1312304  96.6764069  33.4504867  99.0925980  44.3097687  66.9626427
  98.3811951  44.3129063  67.6030636  98.7254429  44.7475529  66.1946726
  82.4127102  22.8437948  57.1830177  82.2151756  23.7377906  56.9037533
  82.0114517  22.2895908  56.5136290  99.8830414  39.5301223  45.1807356
  99.6482277  40.4579782  45.1942492  99.0444565  39.0702486  45.2197218
  85.8684349   9.5871794  34.0536737  86.3386917   8.7996519  33.7800097
  86.5502644  10.2521241  34.1495299  78.8638878  24.6821117  32.8898263
  78.5801554  23.8015318  33.1353998  79.5334101  24.5401192  32.2206402
   4.7222835  12.1201658  37.0217252   5.1135516  12.9446077  37.3105812
   5.4011858  11.7067349  36.4884353  91.6290283  14.5866990  64.7505903
  92.0560074  15.3797197  65.0746822  92.2092247  13.8748670  65.0205755
  20.7595801  27.9598498  44.1939878  20.1377034  28.6755943  44.3251753
  20.3331327  27.1973372  44.5850754  79.5397520 101.4543629  46.0761547
  80.1004219 100.8505630  46.5632963  79.5101261 102.2432613  46.6174364
   9.8444945  27.6174831  61.8263531   9.8891032  28.1737018  61.0486221
   9.7581029  28.2316613  62.5554276  72.9188585  31.4647436  45.9105873
  72.1582937  31.0105300  46.2731647  73.1127501  32.1528864  46.5470600
  72.4077559 102.0627594  67.3772287  71.5261412 102.2775269  67.0724964
  72.6460743 101.2765598  66.8859768  30.8609009  83.0625343  58.0795336
  31.2656927  83.6643696  58.7041616  30.3062677  82.4969482  58.6168766
  11.0190117  27.3148012  59.0860271  10.3548229  26.6255474  59.0899277
  11.5845931  27.0982099  58.3447838  86.1908245  33.0577326  40.5978680
  86.6752911  33.5415173  41.2668085  86.8687820  32.6743150  40.0414467
  58.0786753 102.8644848  23.4335971  58.9123154 103.1933212  23.0972314
  57.8808546 102.1063614  22.8837371 104.1384411  26.0619497  59.0438795
 105.0568199  26.2915945  58.9022350 103.9520168  26.3585782  59.9346590
 105.2774143  38.0841613  32.5730801 105.4411507  37.3790097  31.9468355
 106.1060429  38.5611534  32.6187205  41.1668444 105.1602077  71.8699884
  41.5283966 106.0328388  72.0249462  41.2185478 104.7249508  72.7209377
  84.0215874  15.8340442  58.0327034  84.3084812  15.8840442  58.9445257
  83.6332226  14.9629724  57.9512358 100.2014542   3.8415128  49.6451426
  99.9557877   3.4171075  48.8230991  99.3785286   4.1859120  49.9921608
   2.4549094  58.4286261  63.9524269   2.1768796  57.5131607  63.9816380
   2.3233630  58.6899281  63.0410290  93.7950039  36.6056752  72.7033901
  93.2320118  36.2972426  73.4134245  93.6043549  37.5412560  72.6357460
  11.3134241  23.1925988  31.6069722  11.9336987  23.9035439  31.7683673
  11.5241873  22.8864908  30.7248688   5.0113279  13.2291067  25.2366829
   5.1708245  12.9082882  24.3490624   5.6200272  12.7327025  25.7837653
  69.8567200  17.6476681  20.9287286  69.9567795  17.3181772  21.8218446
  70.1954794  16.9444788  20.3746557  98.5466766  70.2048063  53.5485649
  99.3284130  69.7478962  53.2381582  97.8284264  69.5968771  53.3731508
 113.6785366  35.5290842  24.7365808 113.2539870  35.1381731  25.5002427
 114.2299257  34.8300505  24.3850780  62.7459431  15.0259888  50.4881954
  63.5359144  14.7246206  50.0394726  62.1892881  14.2490780  50.5409145
  83.2513809  31.9048381  51.2268972  82.4650764  31.3626695  51.2902117
  83.9724731  31.2768412  51.1836052 111.7947102  36.3859677  73.6105585
 110.8827782  36.6723371  73.6614370 111.9902992  36.3747120  72.6736212
  10.3527880  48.0719614  79.3032408  10.3000247  47.2195578  78.8709736
   9.6209127  48.0733681  79.9201632  87.6651096  52.1072483  11.1161673
  88.3267975  52.6449203  11.5512741  87.6679611  52.4117184  10.2086878
  15.3024757  10.5040395  41.9453907  14.8036599  10.0514567  41.2652588
  16.0218823  10.9249723  41.4747524  42.5958061  53.0348349   4.7769731
  42.1784735  52.8488970   5.6180996  43.4963608  52.7284336   4.8834953
 113.7538187  16.7613399  39.9167848 113.0711717  17.3763514  39.6484828
 113.5923110  16.6159785  40.8489943   1.2210362  28.0509925  19.3715227
   0.3537926  28.1256914  19.7696936   1.1921106  27.2256494  18.8875771
  83.3436966  12.9341006  19.8513603  82.7554035  13.5359621  20.3073192
  83.6815071  12.3616040  20.5401015  88.5420132  28.8085485   1.6823530
  89.1633034  29.4308782   2.0604256  88.2330227  29.2344141   0.8827309
  86.0508537  14.9509335  34.6620417  86.8480682  14.4863570  34.4073749
  86.2438393  15.2981973  35.5329013  97.9307365   2.9117298  39.4276166
  97.4667072   3.3346874  40.1501179  98.0717945   2.0134750  39.7267389
 106.9318390  53.3565998  38.5060096 107.2543526  54.2157269  38.2337689
 107.6860809  52.7754784  38.4078026 109.2057419  17.5679946  16.1506903
 109.5617867  16.6978025  16.3302135 108.5683346  17.7148271  16.8495357
 102.8989220  16.9979286  31.8304706 103.6143303  17.4616480  32.2656584
 103.1930637  16.0879552  31.7897487   1.4714144  29.5196581   8.3417940
   2.0791361  28.9842343   8.8519210   1.9774643  29.7933650   7.5767910
  75.5873346  64.0677738  15.0716972  75.0062847  63.3665943  14.7768140
  76.0454035  63.6977768  15.8263552  16.4030695  28.7777257  43.1385374
  16.9952250  28.6880302  42.3918486  16.6465592  29.6126318  43.5383797
 111.7291832  22.4139762  22.4105906 111.1154747  21.6997600  22.5823212
 111.9017696  22.7938175  23.2720828  54.6028566  96.9353008  63.0156612
  54.0597963  96.4167118  62.4220419  55.2283812  96.3077831  63.3778381
 101.4365292  41.2447739  69.6716881 100.7937527  40.5493164  69.5323658
 101.0737705  41.7662573  70.3877163   9.8882914   0.6313630  66.9090557
  10.7305324   0.9473719  66.5819454  10.1178420  -0.0037739  67.5873899
 110.3022194  10.4993343  76.5676832 111.2165833  10.7787955  76.5222692
 109.9460983  10.7036269  75.7030010   4.9474862 102.0016098  21.5744066
   5.4809332 101.5710831  22.2424698   5.5350566 102.6435280  21.1757421
  87.1528721  19.3320143  74.8071194  86.7602921  20.0654411  75.2806139
  86.6162109  18.5768175  75.0477505  85.0830746  32.5586629  38.2577252
  85.2531338  32.9467010  39.1160607  85.3949356  31.6571164  38.3364105
  49.3579054 105.3550053  14.3061757  49.1832590 106.2747288  14.1066015
  48.5526419 105.0422859  14.7184849  81.8388844   6.5676427  68.8556004
  81.0919762   7.1284497  69.0650320  82.5312805   7.1767765  68.5991478
  98.9972687   7.7175373  55.0408125  98.0997276   7.3978066  54.9490643
  99.5322132   7.0608699  54.5948792  87.1691227   4.1365567  66.7862701
  86.3993168   3.6024565  66.5904236  86.8850708   5.0356555  66.6214466
  72.0602942  16.3410568  54.0505695  72.2345448  15.4580808  54.3764877
  71.1075497  16.3822246  53.9680433  53.6450577  98.4803104  50.8249998
  52.7097130  98.3325672  50.6852436  54.0589714  97.6572227  50.5653286
  52.4771595   0.7773437  37.1469569  53.2767296   0.9679754  37.6374507
  52.6400280  -0.0763655  36.7458487  81.3257217  21.5036964  54.9657965
  81.7564774  21.6766858  54.1286898  81.7001247  20.6736231  55.2608013
 106.2090206  20.6133723  41.3263798 106.9519806  20.3184509  40.7998276
 106.6035748  21.1291647  42.0296001  87.0046520   9.0114236  40.7252502
  86.7493725   8.0889165  40.7320452  87.8399277   9.0253639  40.2579689
 103.2539368  25.8478761  42.0659351 103.8384342  25.3636193  41.4827633
 102.5162697  26.0998964  41.5104485  14.6323025  50.3908730  13.8921964
  14.0333641  49.6865320  14.1399932  14.0620387  51.1389732  13.7150621
  48.7994909 103.5710144  28.0980682  49.3216896 104.1174030  27.5107074
  49.0526009 103.8540649  28.9767313  77.0610094  18.4256160  57.9173374
  76.9589424  17.6005471  57.4429178  76.1650848  18.7171543  58.0863190
   5.4756629  32.9196405   2.8594500   6.2218678  32.6970267   2.3028052
   5.0654685  32.0778990   3.0580583 101.2987041  51.9715834   9.3975526
 100.5370426  52.0176077   8.8196498 101.9023132  51.3775730   8.9514089
 104.8951721  22.0642543  30.9155393 105.2561188  22.4119568  31.7310500
 104.4151020  22.7990270  30.5336118  71.0572290 101.2647629  25.5145025
  71.9959593 101.2711620  25.7015181  70.8736420 100.3660774  25.2408433
  80.3629875  35.8135843  41.9006443  81.2174606  35.7389760  41.4757586
  80.1944637  34.9403644  42.2546530  51.7772007  80.7356548  27.3372388
  50.8602810  80.9943008  27.4299335  51.7721558  80.0819778  26.6380119
  88.5866642  27.9460096  71.5469980  88.2880688  27.0448899  71.4242983
  87.9021263  28.4818149  71.1463118  52.3397970  21.3710403  36.4319158
  51.8051243  21.3601089  37.2257900  52.9509783  22.0956469  36.5647340
  83.8784885  21.1235213  45.6776142  84.5602417  21.5362382  45.1474190
  83.0588245  21.3760281  45.2526093  75.8244658  20.3984022  50.4972792
  75.4185057  20.1483846  51.3272905  76.6275311  19.8790443  50.4574013
  29.7450781  93.9984608  90.2286148  30.3770113  94.2683125  89.5622253
  29.7987461  94.6793270  90.8992577  27.4396896  55.2643728  78.9256382
  27.6415539  55.5055189  78.0215740  27.6725578  54.3377733  78.9840651
  73.4474277 105.4813004  80.7469177  74.2751884 105.5526829  81.2222576
  72.7900553 105.8104038  81.3599300  94.0970707  33.2581353  57.8414774
  94.1624737  33.4211779  56.9005394  93.2716179  33.6687446  58.0988979
   9.2436200  54.0753317  28.0840564   9.5021862  54.2810011  28.9824319
   8.2869130  54.1027355  28.0979443 111.5539074  29.3397760  64.7506523
 110.8759403  28.8579535  64.2769098 112.3777199  29.0007210  64.4004869
 113.5182262  34.7556114  61.7642784 114.2797894  35.2870369  61.5322399
 112.9535215  35.3494501  62.2589493   6.7087615  16.5340495  57.9708958
   6.8317896  16.6013575  58.9177704   5.8171284  16.2013471  57.8682709
  80.7325077  18.1122410  32.8299737  79.7765017  18.0973411  32.8753424
  81.0065079  18.4785867  33.6707735 101.2189388  49.0414190  40.6793737
 100.9057713  49.6821928  41.3177824 102.0507145  48.7324333  41.0384083
  93.1950283  36.4682150  55.6118727  93.7929344  37.2108221  55.5265951
  93.7176800  35.7090259  55.3536081  18.1853080  29.4141173  11.1817920
  17.9311252  30.2820230  10.8681631  17.6714289  29.2876887  11.9793975
  60.6592274  97.8334045  90.7343006  60.5217552  98.6803913  91.1584949
  61.0911465  98.0470562  89.9072361 108.2832241   1.6940282  47.7012587
 108.7653732   2.3476565  48.2077408 107.4622345   1.5782310  48.1795931
  16.8671405  70.1839781  34.1501307  17.7865553  70.4200220  34.2733955
  16.3809669  70.8595753  34.6228218  63.3439302 105.9823608  35.5586004
  63.3312654 105.2995205  36.2292695  62.9194021 106.7333508  35.9733629
 103.9912128  35.4931426  41.8187380 104.8897934  35.7847238  41.9728994
 103.7074757  35.9877491  41.0499144  95.3371620  52.8622818  16.7288101
  95.7004833  52.3748350  17.4681520  95.8595467  52.5820589  15.9772658
  99.9548244  51.3881493  42.7377319  99.3328285  51.7671442  42.1166611
 100.8147240  51.5902662  42.3690271  93.6513615  59.9199057  23.2806897
  94.1202068  59.3780899  22.6459908  93.0258369  59.3221426  23.6901116
  12.0456207  23.5749125  14.9870539  11.9026113  24.2960501  15.6000316
  12.6654768  22.9992223  15.4349267   0.2202953   4.3433097  42.7248955
   0.3396378   5.2002501  42.3154545  -0.4884575   3.9363888  42.2265816
  85.9624195  28.2530999  85.0571060  86.0340595  28.3324242  86.0083199
  86.5221596  27.5087643  84.8360062  88.9964771  61.3894844  47.3576355
  88.9296913  60.4730129  47.0895815  89.9242401  61.6018486  47.2557020
 103.7456417  41.3084507  33.3404088 104.6262074  41.6686726  33.2351851
 103.8885117  40.4070902  33.6291409  96.3928986  57.1245670  65.3962564
  96.9325352  56.5481281  64.8552036  95.5810833  57.2282505  64.8998260
  40.0560284  57.1506977  36.6935444  40.4248476  58.0266237  36.8073726
  39.8975372  57.0780039  35.7523608 104.5124912  43.0801249  35.6993628
 105.1552010  42.7361584  36.3197279 103.8586426  42.3853397  35.6219769
  95.0572777  29.2592382  78.3841372  94.2539215  28.9169097  77.9921341
  95.4129314  29.8522329  77.7222490 106.4197063  32.3459721  27.3874211
 106.8185234  32.9727364  26.7838120 107.1608448  31.8725872  27.7653790
   9.5873338  24.7021675  54.2474318   8.9438480  24.0039754  54.3686008
  10.2615583  24.5228767  54.9028015   0.1021100  54.4407558  26.3224506
   0.8056527  53.9836359  26.7832136   0.4955120  54.7116423  25.4929423
 110.4893112  51.4763737  67.8205919 110.7117081  51.9427299  68.6263752
 111.1764240  50.8163691  67.7284098   8.0333376  53.3663940  75.5801439
   8.1520230  53.6964273  74.6895170   7.6876324  52.4814463  75.4635620
  66.7996931 106.6892338  44.4797659  67.7132368 106.5605259  44.7349215
  66.3802290 107.0456409  45.2628756   1.9189252  30.1411653  22.6853371
   2.1582353  29.3455124  22.2100496   1.1203930  30.4463649  22.2547174
 108.4436417  17.4675274  22.6992702 108.5388756  17.2819328  21.7650771
 107.5018883  17.4090970  22.8602815  92.3250103  34.5430017  44.7261286
  92.6820660  33.6840177  44.5005465  91.8920612  34.8401117  43.9258099
  87.0419216  73.6846209  55.4074430  86.0893726  73.7401724  55.4835987
  87.3001766  73.0585766  56.0839033 108.0155563  38.5653138  43.4956741
 107.4114323  37.8234363  43.4659576 108.7643814  38.2856560  42.9690886
   6.1201280  46.6297102  78.2734823   6.2489599  46.4757156  79.2093897
   5.8424026  47.5440025  78.2171869  61.9995356   0.5608428  89.4011688
  61.3324833  -0.0771121  89.6547222  62.7795696   0.0346898  89.2252731
  25.9597373  46.2732506  56.3749456  26.7012382  45.9141636  56.8622494
  25.9909844  45.8274937  55.5284548  16.6635144  79.6085835   2.4690472
  17.5452137  79.3563557   2.1947853  16.0822535  79.0768147   1.9253641
   8.7792891  42.0626497  54.7268295   8.1577224  41.3351440  54.7517443
   8.2326788  42.8411388  54.6200371 103.4612560  42.4393320  50.2142763
 103.4144306  43.3544588  50.4910088 103.2044697  42.4544764  49.2922878
  50.7790852  11.8421793  91.2536526  51.3774395  11.1695683  90.9283924
  50.9383392  11.8684518  92.1971416 107.2332859  39.4692039  52.6922941
 106.3289070  39.3758512  52.3929119 107.3652077  40.4144955  52.7647924
   2.1773450  21.9730330  76.0827160   2.3322204  21.6979170  76.9863510
   1.2252314  22.0432448  76.0135651  95.6589508  32.9368329  73.9006519
  96.0857773  33.7833214  74.0329790  96.0521507  32.5931287  73.0984735
  92.5717068  12.9512358  55.6203890  91.7781162  13.1839883  55.1384354
  92.2843838  12.8697133  56.5298033 100.5479336  68.6902761  49.9581289
 100.7063389  68.6308289  50.9002542 100.7588291  69.5972824  49.7365570
   5.5202717  46.2249947  66.5364122   5.7532865  47.0016670  66.0277700
   4.7545773  46.4924479  67.0447540  72.1359015  11.4570630  90.1110363
  72.8235197  12.0735288  89.8592854  71.5913630  11.3729262  89.3283272
  87.0833683 104.2578411  40.1955366  87.8548431 104.4206238  39.6528029
  86.6416836 105.1056385  40.2444029  72.4886274  16.9202650  42.6786375
  73.3702278  17.1475637  42.9741764  72.5548506  16.8959630  41.7240429
  19.5545328   5.2438432  26.9546199  20.2871156   5.1282072  26.3494897
  19.1995418   4.3627012  27.0721030  40.6168127   8.1757784  47.0220518
  39.7522998   7.7709997  47.0927811  41.1934710   7.4626547  46.7479181
  81.2168121   7.3090285  33.8795161  81.1520767   7.1235287  34.8163366
  81.1292934   8.2601726  33.8170838 100.6893730  21.3556361  69.9259901
 100.8618355  21.7685890  69.0798473 101.2905312  21.7897081  70.5313158
   2.3908560  23.7198949  54.6852970   2.5983483  23.0465269  55.3331804
   2.5938272  24.5456958  55.1247168  12.1419978  77.3521042  37.6980734
  11.7703557  76.5442085  38.0522132  11.7134404  78.0501366  38.1933761
 104.8880482  43.4527159  69.8387814 104.2893410  43.8135290  70.4926920
 104.3259048  42.9448128  69.2537451 109.7440338   2.8312600  17.5996268
 110.5132389   3.0855981  18.1093919 109.3400288   2.1292804  18.1097567
  22.4645758  28.0020022  39.7597814  22.6558852  28.7269568  39.1647410
  21.5138936  28.0260158  39.8686767  60.9354258  25.8939123  37.9126096
  60.6920815  25.1483679  38.4614062  60.7286549  25.6128073  37.0212865
  30.3117371   8.0362886  24.2176247  31.1521816   8.2863039  23.8337278
  29.9944973   8.8344663  24.6401215  69.2982483  88.3423805  92.6412868
  69.2042255  87.5990486  93.2369804  68.5584354  88.2619286  92.0392609
  12.4408495  83.4483242  25.0101781  13.2706630  82.9717445  24.9875283
  12.5570273  84.1615009  24.3823934 102.5244617  61.2718153  75.6831169
 102.2400475  60.4777431  76.1356592 102.4989605  61.0405159  74.7546339
  98.8078308  14.6727860  25.8043551  98.8586807  14.6600962  26.7601204
  97.9205704  14.3722165  25.6077003  61.5153933 102.9612732  71.4933968
  60.9104776 102.6156521  70.8369970  61.5015507 103.9085484  71.3566494
   8.8046193  51.2119579  17.8966951   8.5909271  50.3351116  18.2156157
   8.0504251  51.4633036  17.3635483 110.6499100   0.3564424  56.7581987
 111.5025806   0.0060916  57.0159626 110.0549412   0.0737477  57.4526930
  19.5907390  81.2987041  48.2558680  20.2881384  81.7620850  48.7197018
  20.0494504  80.7527828  47.6172829   7.4179095  18.3814669  49.6475172
   6.6372973  17.8638995  49.4500303   7.4962592  18.9874065  48.9106798
  94.5052719  43.6579275  52.3190117  94.5745373  43.2096624  53.1619167
  95.3310108  43.4633636  51.8756962 107.0971680  62.8386402  73.2766485
 106.7215252  63.6876392  73.5097218 106.8351746  62.7026510  72.3660994
   8.3309382  24.8499155   9.1870922   7.6508653  24.7534561   9.8537463
   8.0732852  25.6281734   8.6929637 105.4124069  31.2362409  66.4975166
 105.3066254  31.1815071  65.5477571 104.9503613  30.4687047  66.8346024
 103.8670349  42.9696608  25.1752043 103.9049149  43.9034796  25.3820443
 102.9740047  42.8301716  24.8601174  53.3746433  11.0374880  81.3260460
  53.5710859  10.1051188  81.2347698  52.5512695  11.1562502  80.8525658
  98.5787296  25.3045487  59.1036701  98.6586380  24.4056129  59.4226694
  99.4607544  25.5342221  58.8112497   6.2191457  39.2407608  41.6304970
   5.9207821  39.4234586  42.5214672   5.4386884  39.3554449  41.0883093
  97.1864414  22.8354716  44.2875385  97.2474098  22.9241419  45.2386713
  97.1482277  21.8909574  44.1370010   4.8268640   4.5900878  28.0459237
   4.4755509   3.7136707  27.8887486   4.6733907   5.0601763  27.2263527
  91.8902302  34.3173957  69.2448854  91.6855621  34.4491076  70.1706266
  91.3693333  34.9778843  68.7880993  13.6631083  36.4557648  69.0631819
  14.4242263  36.8368936  68.6253786  13.2264221  35.9440732  68.3822203
  85.7988453  24.4824171  52.3586988  85.9031200  23.5616612  52.1187687
  86.5773392  24.9119496  52.0041847 109.5225811  13.2385445  57.1852493
 110.1213074  13.7215114  56.6155910 109.9941158  12.4340284  57.4012136
 107.7856064  35.7370114  34.6973228 107.5444126  34.9605966  35.2025342
 107.6940632  35.4662895  33.7837791  18.3521295  48.1473780  59.3070745
  18.7729943  48.2123613  58.4498215  17.8905904  48.9794922  59.4110012
 109.6549416  21.4334083  76.1750317 109.8859787  21.5124822  75.2495003
 108.7755013  21.8065214  76.2350798   7.6723897  30.2453923  39.9353218
   8.3496130  30.9197688  39.8822165   6.8965644  30.7093239  40.2501154
  75.1877785  31.6957426  44.2788363  74.3948698  31.5990758  44.8062706
  75.3690672  32.6355648  44.2889547 112.6573944  63.5063028  50.1319218
 112.8907204  63.6958551  51.0406923 111.8943024  64.0581465  49.9604607
  21.2466240  36.9963455  56.8849468  22.0072055  37.0406747  57.4644184
  20.6289673  36.4267969  57.3435831 100.2740383  21.3481045  75.6237364
 101.2140656  21.1741209  75.5757093  99.8708344  20.4803371  75.6490898
 100.0329876  65.8369207  67.7158880 100.0718689  64.8805141  67.7165318
 100.8668518  66.1107922  68.0978346  96.1033630   8.3803606  70.9973574
  95.7432365   9.2667735  71.0258007  97.0520973   8.5073221  70.9926939
   5.7058477  56.9309807  17.5437093   6.3651621  56.4100647  17.0852542
   5.8819342  56.7770672  18.4718990  98.5420609  74.0763712  60.1665401
  98.7332916  73.4901094  59.4344521  98.2774925  73.4929609  60.8777905
  79.0522099  62.9168272  20.5661225  78.4959650  62.2234344  20.9211326
  79.6326303  62.4673557  19.9518621 108.1063461  52.4569416  30.6824565
 108.5300732  51.7058039  31.0977626 107.1784210  52.3559952  30.8945894
  33.8063049  30.6484699  42.2030878  32.9054213  30.5378199  41.8991184
  34.1304588  29.7556591  42.3216057  36.6772127  16.0451210  45.6080198
  36.9215631  16.1494279  46.5276098  36.9889903  16.8452334  45.1851130
  82.8100491   5.0754398  35.7738376  83.4298038   4.6532485  36.3687205
  83.3024502   5.8013350  35.3906298  21.5077233  61.0855961  23.8055825
  22.3173189  60.9722185  23.3076549  20.8220029  61.1358786  23.1396294
  98.1007957  48.4110451  16.6815352  98.2089520  47.7021313  16.0475230
  98.2766819  49.2082453  16.1817610  67.5536346  96.2865448  61.6846752
  68.0462837  95.8018589  61.0223961  67.3212337  97.1099186  61.2553930
   2.8281572  65.2332354  37.5123572   2.5303262  65.6339169  38.3290458
   3.3117628  65.9287882  37.0667505   7.2330809   3.7001768  15.8060634
   7.5348747   4.5858875  16.0077274   7.3498380   3.2155019  16.6231871
 100.8757496  37.1296740  46.8622589 100.6077099  37.0671129  45.9454870
 100.9157944  38.0700374  47.0364523   3.1988406  29.3256903  59.4321775
   4.0435153  29.3311357  58.9819241   3.2687005  28.6098289  60.0637579
  48.0197191   1.2226638  10.1704872  48.1292677   2.1486452  10.3867936
  48.1492615   0.7656305  11.0014927 101.0615730  46.4297009  39.6367073
 101.8763065  46.4369059  39.1343236 100.9509182  47.3352146  39.9265957
   0.2547598  52.1776676  36.2124705   0.3022337  51.8145323  35.3280997
  -0.1740885  51.4952898  36.7288780  68.5860062  87.4328518  46.8655348
  69.1623735  86.9670677  46.2596655  69.0850496  88.2081509  47.1226358
  20.5984759  49.7733498  53.3676815  19.7175944  50.0072575  53.0751705
  20.5454803  48.8377619  53.5628891  28.8756394  19.6934295  33.3451176
  29.0986109  20.0771666  32.4970245  29.2439485  18.8105166  33.3127832
 109.2492199  38.2594585  74.8037434 108.3223343  38.4765267  74.7037888
 109.6762753  39.1008806  74.9645472  98.5528278  71.0396671  33.8498592
  98.4282112  71.3541460  34.7452974  99.1299057  71.6880846  33.4464145
  96.9778633  39.1908193  57.2873735  96.1953068  39.7347808  57.3764944
  97.5112915  39.4116759  58.0508614  10.1243687  21.4546156  49.1643095
  10.0305641  22.1677065  48.5327005  10.1274621  21.8890071  50.0172615
  78.2766914  32.6628876  41.0688591  78.8987255  32.1012402  40.6064177
  77.6206303  32.0585489  41.4161301  63.0527258   9.2463261  45.3780794
  63.0853510   9.3599868  44.4282150  62.1851015   8.8783658  45.5456114
   1.8295991  37.9996181  24.3065691   2.2827426  37.3695350  23.7463117
   1.3515639  38.5617805  23.6969090 107.3818874  23.6363482  53.5535192
 106.9170856  23.1253123  54.2161131 106.6901875  23.9849591  52.9911613
  86.4822388   9.0235698  69.4679451  85.8233452   9.5275992  69.9454927
  87.1595097   9.6630204  69.2474174  10.5520225  45.6172562  19.1589844
  10.0268710  45.2835512  18.4315991   9.9826324  46.2518215  19.5941305
  88.2406616  51.2837505  65.9507227  88.7104988  50.9085274  65.2059412
  88.5129166  52.2012472  65.9680605  12.9642427  74.4372606  40.2460051
  12.8172553  73.4954500  40.1587057  13.8589346  74.5700836  39.9327707
 105.5802250  34.3277311  37.8535867 105.4450798  33.7316585  38.5902452
 105.7736397  35.1720190  38.2610154   1.8974291  55.1460409  41.4639664
   1.5387037  54.5676756  40.7908869   2.1121562  54.5624113  42.1916389
   7.0412058  37.0449448  59.0129328   6.5211833  36.2496138  59.1280699
   7.0456994  37.1933675  58.0673170  76.7136431  24.8626065  70.0841284
  76.6327810  24.5082092  69.1986370  77.0228052  25.7593822  69.9558926
   5.6925756  30.0216770  69.2805958   5.2841312  29.2406511  68.9072275
   5.0673419  30.7253003  69.1067362  94.5638943  62.1175671  31.3776374
  95.4371834  61.7408609  31.4857721  94.3957806  62.0663357  30.4367089
 107.2272301  23.9009666  23.1263256 106.9124603  23.2004929  22.5549364
 106.4739418  24.1190720  23.6751604 103.0322361  83.2592583   9.0331769
 103.1482220  83.8508797   9.7766542 102.1606731  82.8841591   9.1592646
 101.9027424   7.7060121  87.0709229 101.8198490   6.7758262  86.8608856
 101.8396282   7.7425981  88.0253410   4.4734415  19.1000581  43.5085917
   4.4081965  18.8534808  42.5859976   3.5880885  19.3757606  43.7460136
 108.0159855  55.1903391  17.2262955 107.2912502  55.6873989  17.6056767
 108.5338497  54.9086046  17.9803979  43.0768108  87.2114563  36.3508272
  43.1048632  86.6127777  37.0971727  42.1660280  87.5033379  36.3120127
  99.0973473  54.0062952  32.8632689  98.8864136  53.1187963  33.1532359
  99.7906971  54.2938900  33.4572339  82.8669548  29.1088653  59.1180277
  82.7216244  28.4676099  59.8136568  82.0335197  29.5735621  59.0427113
  91.8567944  76.1041117   1.8178475  92.3287773  75.3184938   1.5416770
  92.3410988  76.8270731   1.4190778  62.7830982  76.1131907  22.0982599
  62.2041225  76.0154533  21.3423038  62.2910881  75.7353067  22.8272057
  23.5780978  29.6821189  20.7661700  22.9324341  28.9756012  20.7795668
  24.4130659  29.2406154  20.6108046 104.6672344  20.3996468  78.5938120
 105.5152893  20.7638311  78.8475990 104.8847294  19.6248162  78.0755758
  16.3120461  42.6035786  57.7911568  16.3456464  42.0065355  58.5385799
  15.7423437  42.1646929  57.1594524  81.4143944  78.4503794  45.3799391
  81.7875576  77.9242516  46.0871696  81.5058422  79.3546438  45.6802273
  71.4653540  81.0844898  47.0244026  72.3673010  81.2543678  46.7526150
  71.5485287  80.5053711  47.7819872  88.6445236  52.8386927  61.9562912
  88.9813232  52.0220232  62.3248577  88.3772182  52.6076984  61.0666752
   4.0817121  53.9095402  47.4937725   3.3315921  54.2494488  47.0059061
   4.2221850  54.5482588  48.1927252  48.2184982 105.9589481  89.1296101
  48.1697178 106.6418076  88.4606171  47.4221754 105.4429626  89.0036869
   2.8520334  76.1753607  55.5044127   3.7842023  76.1670542  55.7217216
   2.7734506  76.8311453  54.8115873  64.3888283 101.8249226  45.6422043
  64.1505146 102.2278976  46.4770985  65.0195265 102.4318027  45.2547169
 111.0056114  42.7004004  38.8494682 111.9256401  42.7975750  38.6038446
 111.0082150  42.0211458  39.5238853 111.4989471  42.7939510  42.1914244
 111.1968517  43.0851698  43.0517530 110.7665539  42.9814196  41.6043186
 105.8385181  70.2049112  45.7055569 105.2754879  69.4589520  45.9123802
 105.3124046  70.7461262  45.1168966   9.4600624  15.6877983  28.1908917
   9.8655003  15.6399262  29.0566635   9.5914173  16.5948319  27.9147267
 110.3974438  19.0554380  45.9150028 110.4330063  19.9740970  46.1815262
 109.5136929  18.9415145  45.5654001  97.6964664  14.3253732  22.0574284
  97.0359421  14.9325633  21.7238688  98.4092236  14.8887300  22.3588300
   0.8192092  39.8972011  53.2956171   1.6707890  40.3289843  53.2277489
   0.1833984  40.5961132  53.1423330  97.7235317  16.8977666  35.6683183
  97.3590660  16.6969681  34.8062992  98.1992054  17.7187371  35.5419230
  87.6207447  23.6302590  83.3175755  86.7883301  23.2570338  83.6074352
  87.5810909  23.5908461  82.3620129  87.6077557  72.9087400  31.0995889
  87.1487904  73.7276030  31.2868190  87.4528980  72.3653173  31.8722081
 104.1067028  59.2855215  35.1920056 103.9399529  58.3684635  35.4097843
 104.2168236  59.2896938  34.2411709   7.1922892  21.2049532  61.4079428
   7.1666545  20.6147861  60.6547594   6.7482221  20.7226372  62.1053696
  19.9807763  30.8630133  14.3505847  20.2558613  30.5627751  15.2168500
  20.3365660  30.2109003  13.7469327 105.8457851  46.2798405  40.8561754
 105.8013535  45.4521847  41.3349724 106.7728615  46.3827324  40.6412601
  64.4804525 105.2552032  42.1167278  63.6796093 104.9424553  42.5375223
  65.1794672 105.0184727  42.7263021 106.5853596  25.5615854  38.8373160
 106.1292744  25.2841234  39.6318150 106.7498779  26.4952636  38.9692640
  96.4389038  60.5585289  59.6637011  97.0267010  59.8535776  59.3920803
  96.9898319  61.3412714  59.6684742 102.5834465  52.2300673  78.5566950
 102.6420784  52.4653339  79.4826794 103.4918690  52.0993805  78.2848024
  14.3276489   6.1727333  64.8168087  14.1396880   5.4178232  65.3744984
  14.7618854   6.7974311  65.3976917 100.6031513   2.1590517  47.4790764
 100.5390072   1.3792938  46.9276285 101.3313770   1.9738202  48.0720377
  93.1541920  13.9487326  62.2531271  93.0499458  14.3472767  63.1171465
  93.2465267  14.6914089  61.6563559  89.4438553  19.6490681  69.4996548
  88.8269997  19.8769319  70.1952076  89.5044231  20.4403925  68.9645147
  80.0465679  33.7148571  70.3849745  79.6539831  34.1628528  69.6356964
  80.6652069  34.3496180  70.7463408  13.5800397  17.8210104  16.7531443
  12.7447128  17.9775584  16.3127446  13.4747446  18.2219076  17.6159453
   1.1030007  27.6242590  76.2832975   1.4345205  26.8690133  76.7690277
   0.5691731  28.1018519  76.9182491  11.7744982  45.5468893  38.6105108
  12.0446038  45.3483391  39.5070887  11.4761353  46.4557076  38.6459517
  97.1791744  34.4486785  48.8000250  97.4936390  33.6258221  48.4255266
  97.5425148  34.4631696  49.6854639 112.9396725  19.6793199  41.6070700
 112.8787422  20.0769258  42.4756479 112.3292637  18.9426291  41.6375351
 106.1482430  16.7304003  44.8925400 106.1789036  16.5322709  45.8285093
 105.3991413  17.3185110  44.7966290   7.8578508  45.5645990  42.7182579
   7.8675061  46.4778900  42.4318266   6.9422197  45.2977228  42.6368523
  11.7273915  19.3891406  49.1230249  12.2330546  19.5608521  49.9174118
  11.0524046  20.0678110  49.1173840 109.0378094  71.4388800  24.3691707
 108.8831043  71.3188648  23.4322095 109.9894619  71.3952303  24.4623160
  25.7982779  50.3987646  18.8636184  25.1519012  49.6969509  18.9403510
  26.1735964  50.2843046  17.9905391  26.4721298  19.0619314  87.9723358
  27.1089554  19.4076324  87.3468971  25.9065795  19.8071384  88.1749535
   0.7956503  72.4931240  51.3333988   0.9759407  73.0515146  50.5771351
   0.9367625  73.0619669  52.0901918  89.0761662  42.7461243  72.7451611
  89.5173073  43.5699797  72.9522705  89.0435123  42.2759008  73.5782576
  90.4186249  30.1927757  37.7622175  90.5323029  29.2553139  37.9186559
  89.9191666  30.5028248  38.5176229  92.6392651  51.1178303  63.2756376
  92.8049088  50.8024836  62.3871851  91.7989445  50.7273197  63.5156298
   3.3341631  46.1726856  34.3672109   2.8479367  45.6293631  33.7470365
   3.9128238  45.5594969  34.8204041  66.4772224  49.4316006  25.9202456
  67.1801805  49.2339373  25.3013659  66.6298151  50.3420639  26.1732292
  88.2172203  58.3730316  47.2590685  87.6809216  58.0316639  46.5434694
  88.8740730  57.6936150  47.4112749  30.0612831  69.7806263  52.9506445
  29.1428089  69.6330404  53.1761503  30.0361252  70.4581070  52.2749043
  62.8467274   3.1870177   9.1717035  62.2225809   2.9021347   9.8391724
  62.3002958   3.5035294   8.4523523 103.1428719  52.3154259  65.8101892
 102.8129005  53.0797911  65.3378582 103.0118847  52.5297070  66.7338514
  10.5070364  60.3674412  44.2038679  11.0646820  59.6627951  43.8741064
  10.3017294  60.8923721  43.4302235  17.3710775  11.0677934  81.9913197
  16.6551518  10.4691756  81.7783928  18.1492329  10.6523061  81.6197300
   5.8673805  38.1734490  19.7239208   6.6376394  38.1652951  19.1557074
   6.0681880  38.8307214  20.3901792  44.1711903  62.5319147  67.5523710
  44.0162611  62.5019598  66.6082668  44.9596024  62.0049477  67.6825428
 106.7241478  92.9460812   4.9526870 106.4958763  93.5138702   5.6887138
 107.6802444  92.9038048   4.9703389  26.0182452  48.9530134  79.7748137
  26.3919377  48.8088226  80.6441784  25.1045609  48.6802626  79.8586082
  28.7863302   6.8555093   0.2131490  28.6170316   6.3573450   1.0127756
  29.6961045   6.6544467  -0.0062030   4.4182462  33.2990479  44.8272371
   4.1412270  33.3045125  45.7434559   4.9048167  34.1162515  44.7192526
 106.1992073  45.0718212  35.2233648 106.7128372  44.9045086  34.4331598
 105.5790710  44.3438339  35.2645493  19.4959855  69.0425062   2.8469595
  19.8093331  69.9318314   3.0117059  18.5520899  69.0891218   2.9990104
 111.1644459  30.1009846  67.3070955 111.2933064  30.9843922  66.9618177
 111.2281990  29.5322728  66.5398026 104.2283344  68.3336639  60.8206940
 104.7976494  68.9493179  61.2823153 104.7704315  67.5550079  60.6939745
   6.5064001  57.1329260  12.4719071   6.9905418  57.6605940  13.1070495
   6.9546974  57.2878790  11.6404927 110.6101990  60.8742046  37.8937936
 110.3221703  61.6855669  38.3120775 111.3365841  60.5692244  38.4374595
 101.3865376  78.6120844  36.2771106 100.8235073  78.1397247  35.6638336
 101.8688774  77.9251480  36.7372108   3.6791611  47.5668240  67.9552460
   3.6817387  48.1968117  68.6758995   3.9684817  48.0713749  67.1950102
   3.8258770  49.4828367  51.3813829   4.0373862  50.4150963  51.3325214
   4.0945217  49.2221403  52.2623444  14.3007648  38.1897449   9.5969898
  14.7324264  38.7233782   8.9298046  14.0261900  38.8176894  10.2652144
  34.2450881  75.7377100  54.5390558  34.4059062  76.6435575  54.2748404
  35.0889969  75.4317284  54.8713636  35.9874272  60.3444576  69.1299820
  35.0542164  60.5518436  69.1783762  36.3529372  60.6940985  69.9426222
  16.4579177  20.9400702  29.5289874  17.4011767  21.0880017  29.4610834
  16.1932540  21.4340758  30.3049660   6.9640070  42.4395561  68.7512398
   6.1705583  42.7268696  69.2030382   6.6450232  41.9110155  68.0197144
  95.9123230  34.1433167  51.5551567  95.7846260  33.3348608  52.0514727
  95.1064014  34.2431068  51.0484266   8.6530679  53.9501190  54.6362114
   8.5358632  53.0426931  54.3550062   9.1971606  54.3438482  53.9541769
  88.4939480  19.0841758  37.4992990  88.1919193  18.6829627  36.6844153
  89.3661213  18.7153554  37.6389670   1.2491592  81.9171047  17.7273178
   1.4977346  81.0646820  18.0848348   1.6936976  82.5515079  18.2895863
  16.3948929  52.8948355  40.2436161  16.9529641  53.4135437  40.8230400
  16.7729771  53.0185938  39.3730044 109.4646454  48.5812998  65.4174995
 109.3389130  49.4713545  65.0885153 108.7722683  48.4664965  66.0683966
 111.5877342  36.9011021  48.7228107 111.7713833  37.1435952  47.8152323
 112.4273586  36.5916371  49.0626383 102.5719833  50.4626274  20.0193167
 102.1697235  49.6193743  20.2274823 103.0072594  50.3194046  19.1789246
 107.5028610  34.8687983  48.0209970 107.8148365  35.7682133  48.1207800
 106.7616081  34.8042011  48.6231613 100.8601189  44.5828438  30.1125526
 101.5027332  44.1210461  30.6510854 100.0306702  44.4650221  30.5755544
  34.2437196  11.9714308  58.2999277  34.1262484  11.2932360  58.9651203
  33.7961769  12.7381074  58.6578989   6.0402054  62.1506405  31.1809635
   5.1838791  62.3960733  31.5312481   6.1769086  61.2545633  31.4885068
  16.2691963  65.7247925  23.6322546  17.0920026  65.2367973  23.6650991
  15.7692695  65.3045702  22.9324532 103.6852074  37.6809359  75.5810261
 103.4798145  36.7644668  75.3962803 102.9783916  38.1735730  75.1639509
 104.5890236  52.0327234  36.6484261 104.8729515  51.1542845  36.9013214
 105.4028225  52.5112629  36.4904380  34.9548316  43.7376642  23.8378620
  35.4826021  43.8457966  23.0466628  34.6717024  44.6246433  24.0599895
  27.3209238  84.1566181  54.8051023  27.8095627  83.3645248  55.0288343
  27.9793954  84.8513317  54.8018360 109.0316868  60.2011967  45.4594469
 108.2127476  60.0196218  45.9205389 108.7759495  60.7666492  44.7306871
   8.4319121  47.2766113  39.3142676   8.4124172  47.6924229  40.1762152
   8.3817285  48.0053043  38.6956263  74.0073824  71.6942310  40.8987379
  74.1306210  72.4478054  40.3215313  73.4138107  71.1181307  40.4170609
  23.1560111  48.9934254  30.9192944  23.4444094  48.3924007  30.2324009
  23.3374953  49.8646975  30.5669022   4.9179596  23.9162183  37.3176694
   5.8422089  24.1619873  37.3575687   4.9274743  22.9652548  37.2090030
  95.4989243  15.9238446  58.1211758  95.1148224  15.7104349  57.2707891
  95.5056190  16.8806565  58.1476307  17.4372756  93.7647247  86.0894966
  17.1961570  94.3486023  85.3703499  16.8922734  92.9884338  85.9607506
   9.5930219  34.9203086  38.3211279   9.7779500  35.3608656  37.4917054
   9.1301924  35.5760694  38.8426614  30.8365536  34.3920684  62.8988409
  31.4015675  33.8990140  62.3039579  31.0867333  35.3061390  62.7642393
  46.6390657  20.9658384  49.0754747  45.8585119  20.9478736  48.5217142
  47.3521709  21.1886740  48.4770966  31.2267280  88.3738518   3.4592530
  30.3081155  88.1155777   3.3839121  31.5225673  87.9711437   4.2756665
 110.0421619  25.0004506  49.7226477 109.8913670  25.7930160  50.2377510
 110.8394051  24.6219683  50.0933170 109.4358253  71.8489456  15.0686491
 108.6656952  72.3985004  15.2140069 109.2187023  71.0165024  15.4883301
   0.9415456  39.7425723  28.0828714   1.4935821  40.2883148  28.6429214
   1.5569410  39.2991877  27.4989796  -0.3334284  42.6836061  38.1507587
   0.1972246  42.6313400  37.3558331   0.2983808  42.8518200  38.8498664
   5.6749088  64.3762779  32.7914238   6.2997442  65.1012659  32.7770710
   6.1108965  63.6747169  32.3077297 113.2569408  70.4973745  48.4360981
 113.3509064  69.8520756  49.1368055 112.3250103  70.4804182  48.2182741
  85.7199478  47.4669313  63.6609602  85.7668018  48.3765697  63.3666849
  86.6336632  47.1901798  63.7300205  94.3089581  36.1326480  36.9019985
  95.2316475  35.9345388  36.7419410  93.8980675  36.0729814  36.0395360
  98.5709381  36.3264799  72.7299643  99.0025997  36.7936945  72.0146942
  97.7156639  36.0833549  72.3755360  11.4177740  47.7840376  76.0412407
  11.8208337  48.4681082  75.5066156  11.6162014  46.9701147  75.5782223
  35.7579923  62.4073696  27.4856257  36.7005157  62.2601748  27.4067926
  35.6802630  63.1397295  28.0970502  96.8718243  49.2370129  66.1418486
  96.1125088  49.5136547  65.6288671  96.6019535  48.4107018  66.5426159
   0.6231257  66.6936064   9.7194046   1.0155077  67.2942543  10.3530395
   0.3030523  65.9629202  10.2484405  90.1176548  39.3414807  78.6685944
  90.8942223  39.4866872  79.2090464  90.4529953  38.9258099  77.8742361
 112.9561234  55.3921843  66.6930866 113.4997654  54.7833109  67.1930408
 112.1429634  55.4541874  67.1942520   5.7419330  76.4862013  72.9927635
   5.8988059  75.5470562  72.8946066   5.3101653  76.7433405  72.1780920
 100.9905338  48.2087851  45.5048037 100.8022594  48.8427305  46.1968231
 101.9424915  48.2351923  45.4083109  98.8158894  46.6577578  37.7302742
  99.6128941  46.3006544  38.1220675  99.1293240  47.2934771  37.0869565
  36.4786649  53.9979029  39.9037433  36.3977909  54.9343920  39.7229552
  37.4223256  53.8395214  39.9292898  91.3202286  80.8536148  30.6170225
  90.8433342  81.5546227  31.0613298  91.9441986  81.3092136  30.0519347
  89.7028351  79.3228626  44.4817543  88.8875771  79.7442102  44.7538567
  90.0727367  78.9714575  45.2916431 108.0468750  47.0876932  76.3600588
 108.5828209  46.3582802  76.0486746 107.1580696  46.8682384  76.0806227
 106.4576721  26.6273355  48.2004261 106.7459965  25.7290149  48.3620405
 105.5449581  26.6414237  48.4884882   8.5647899  62.9045153  56.7401600
   7.6814884  62.7879381  57.0900440   8.8395208  63.7622499  57.0642757
 108.4088135  53.2811737  70.7169342 109.3005562  53.4021235  71.0431099
 108.1326389  52.4400806  71.0809660   5.9968841   2.1367419  52.0556164
   6.1018860   1.3818017  52.6346397   6.8767798   2.3036702  51.7177534
   5.3913325  44.8670292  41.5985632   5.1221561  45.4200459  40.8651114
   5.3497154  43.9750242  41.2538528 111.2521362  79.0934420  21.1779475
 112.1348763  78.7979698  21.4008832 111.3434124  79.4874859  20.3104019
  26.7879272 101.1228943  39.2552948  27.5326967 101.6990852  39.4272113
  27.0862484 100.5502319  38.5486865   9.2035145  66.2442780  86.4850807
   8.4867275  66.0227108  87.0795155   9.9961561  66.1052370  87.0033646
 102.5471878   2.3845515  45.0468636 102.5026798   2.3404354  44.0917158
 101.8584919   3.0031058  45.2904081  44.2732430  96.1172009  22.5227904
  44.2383099  97.0520592  22.3201799  43.6835480  96.0117340  23.2693648
  92.4069977  95.5980110  44.9988317  92.5921440  95.2198219  45.8584404
  93.0037975  95.1440620  44.4038630  97.5372601  25.6043983  48.2549906
  98.2761860  26.2054825  48.3493853  97.1222782  25.5976772  49.1175365
  64.9763298  29.3840647  35.9142876  65.3819847  29.0702415  36.7224908
  64.1258097  28.9457536  35.8873177  18.4838998  23.6063838  15.5600584
  18.1073236  24.3495488  15.0887525  17.9224885  22.8665185  15.3284359
  23.5761547  52.1364212  33.4744716  22.8444314  51.5559483  33.6839104
  23.7562847  52.5995016  34.2926049  83.1150532   8.0631733   8.4819984
  82.2482014   7.9169595   8.1032860  83.2998657   8.9861065   8.3080155
 105.2271557  12.4297440  54.6910381 105.6138325  11.5565443  54.7561264
 104.3883896  12.2881520  54.2521191  87.4871922  61.2832689  62.3899412
  88.3951187  61.3309717  62.0905828  87.3268890  62.1309376  62.8046656
  67.4020576  75.1474237  45.5373192  68.3269072  74.9122906  45.4624891
  66.9913864  74.7518444  44.7684908  83.8497353  63.0549812  14.0362644
  84.5300007  63.1444693  14.7036958  83.4022903  62.2384501  14.2582941
  86.4600563  12.2466230  61.3921261  86.8950939  12.0628726  60.5595303
  86.9555473  12.9755282  61.7655134  11.3878596   8.9642674  30.8614302
  11.0737407   9.7933769  31.2221766  11.4488757   9.1208774  29.9191022
  29.2770100 105.5630398  38.2306361  28.5611558 106.1900139  38.1272674
  29.8013496 105.9146690  38.9501214 110.0858688  89.2465973  53.0646133
 110.3064632  90.1768398  53.1117296 110.9214497  88.7958336  53.1865120
  14.7582972  78.4770060   5.5752200  15.6379926  78.2225132   5.8537900
  14.2793787  77.6508141   5.5098188  85.5882549  16.0462081  25.5547023
  85.0892925  16.5943992  24.9490976  86.4841843  16.0723341  25.2187586
  93.9300632  33.7325573  11.7829299  93.0626297  33.3518219  11.9201684
  94.0320969  34.3601561  12.4984312  94.0947533   1.4923778  22.4793839
  93.6091328   1.4406514  23.3026290  95.0094891   1.3686064  22.7327037
  16.8780828  11.4819908  39.9066114  17.4902534  12.1759152  39.6617723
  16.2057924  11.5044165  39.2256165   4.5976880  39.7767520  58.0759907
   5.3208679  40.3689384  58.2822847   3.8101703  40.2758312  58.2927132
 105.5748940  52.0952320  31.6702080 105.1143074  52.3884583  32.4564099
 105.2084351  51.2302446  31.4865303 111.0811043  87.5869751  30.9092307
 111.0910130  88.3150959  30.2879620 110.2022362  87.6071739  31.2879181
 110.2690601  13.3515596  78.7663746 111.0115719  13.8382530  78.4085655
 110.6668282  12.6882493  79.3303156 111.7291737  37.0844340  40.4292727
 112.6639462  37.0484972  40.2264452 111.3177586  37.3688507  39.6131396
  58.3601522  17.8731179  64.6137810  58.2827997  17.8036559  63.6622429
  57.5555038  18.3130789  64.8880100  94.5670700  34.9440908  48.5194302
  95.4556179  34.7364044  48.8085318  94.6817398  35.3292799  47.6506901
  85.9155083  10.5686402  42.7879477  86.2530899   9.9242795  42.1657944
  86.6964436  10.9230530  43.2131100  14.1072130  13.7794864  33.9091659
  14.4408953  12.9306877  34.1997313  14.8820245  14.2477930  33.5983801
  97.7286720  20.2454972  22.9797792  97.1524239  20.2170753  23.7435627
  97.2377491  19.7951031  22.2924805   7.9075587  52.2021961   9.4367981
   8.3722007  52.5425625   8.6722797   7.1701258  52.8008986   9.5550394
  72.1602583  96.7986488  36.3008833  71.9652033  96.1008358  35.6753922
  71.3029623  97.1455097  36.5477896  67.6929665  15.2575874  29.9589682
  66.8216276  14.8765969  29.8501229  68.1344986  14.6734202  30.5754352
 110.0194073  60.6303740   3.4024617 109.8424244  61.0116625   2.5425053
 109.8216152  61.3332415   4.0214038  83.1241322  11.2785780  14.8294759
  82.9000568  10.7791078  15.6146848  82.5232983  12.0236433  14.8399794
  93.3309364  56.3528490  18.2672441  93.0620766  55.7845402  17.5454617
  93.4910583  55.7540894  18.9966810 106.1506271  10.0629532  55.6139231
 106.5698814   9.7176957  56.4021206 106.5306282   9.5538521  54.8979282
  91.7150497  53.2238150   9.0377724  91.3014412  53.2250357   9.9009961
  92.5112247  52.7054167   9.1544038   9.6630692   8.5177827   5.5305421
   9.2932993   7.6359010   5.5728072  10.1898646   8.5949904   6.3260025
  80.7930660  11.6213810  30.2313280  80.6737423  12.0732498  29.3959808
  81.3216209  12.2229671  30.7556915  17.6326191  18.2370234  16.4957893
  17.3872983  18.8567185  17.1828318  16.8549633  17.6918995  16.3761103
  64.1658020   5.3314632  17.4902034  64.7970343   6.0509038  17.5037622
  63.8623762   5.2619666  18.3953738  18.6910403  55.5139399  82.7828789
  17.8054059  55.4846525  82.4209023  19.1395509  56.1822748  82.2648048
  90.1682281  28.9033842  63.4485626  89.9968147  29.8262978  63.2612705
  89.6895599  28.4282351  62.7693415  42.0353222  31.4392805  70.6377792
  42.9350138  31.4015293  70.9623814  41.9865751  32.2690630  70.1631069
  12.4810290  26.4649701  31.2131858  13.0233526  27.1260691  31.6433787
  12.6676178  25.6555700  31.6888833  83.2462597   9.8004848  33.1209397
  84.0010643   9.6773130  33.6965513  83.6254501  10.0569153  32.2802901
  98.8306141  17.7031457   9.3687099  98.4220695  18.5144126   9.6706551
  98.8687325  17.7941096   8.4166044  18.4967506  21.6879511   8.7231958
  17.7373505  22.0916247   9.1434246  18.2442427  20.7728672   8.6003548
  18.5165811  77.0520687  84.7459888  18.4143913  77.8471851  85.2690411
  17.8959548  76.4320612  85.1289272  79.5527411  18.6264050  59.3213654
  79.0678787  18.0707932  59.9316406  78.9418364  18.7806952  58.6007977
   8.2889342  51.3546515  83.5866165   8.3748740  50.5206680  84.0484810
   8.4997135  52.0161867  84.2455387  74.0683222 104.4412041  17.7132893
  73.2621384 103.9425087  17.5806010  74.7291470 103.9668846  17.2087383
  62.8428888 101.4588928  15.9702969  63.5278273 101.4031601  16.6366184
  63.2440376 101.0906506  15.1830757  10.9873939   6.0345680  27.9081869
  10.5616534   5.3286350  27.4217343  11.1486471   6.7135406  27.2530341
  93.4800434   4.3884867  35.4904723  92.9125690   3.6994305  35.1449108
  94.1224098   3.9233887  36.0264564   2.2165768   4.3471366  52.6170683
   2.0439111   5.1410854  53.1230927   1.3631718   3.9200047  52.5429726
  86.4470577  24.1061759  30.0862694  87.0338821  23.8229871  30.7874584
  86.3972759  25.0569701  30.1849675  16.8586659  80.1797771  90.8894253
  16.9740021  80.0366879  91.8288136  16.2021518  79.5342636  90.6276512
  16.1066473   4.3392125  26.9638443  16.7480361   3.6548322  27.1548319
  15.3591716   4.1299933  27.5239682  77.7025318  38.3010840  24.5579815
  78.3677340  38.8978553  24.9009204  77.7980852  38.3567858  23.6071920
 111.7931843  14.1989398  62.8526449 112.6881695  14.4355404  62.6092052
 111.8797779  13.7868619  63.7122536 113.0832291   9.7046947  61.8296146
 113.3786392   8.7972611  61.9039965 112.1476173   9.6371478  61.6391134
   9.2525339  33.4130454  25.0029778   8.6016572  32.8729701  24.5547462
   8.8218582  33.6835742  25.8138824 105.4460716  75.5125141  35.9178329
 106.0832882  75.3174257  36.6049504 105.9176922  76.0797453  35.3078651
  68.8918686  18.5230780  49.9106932  68.2400608  18.1239319  49.3344498
  69.7188997  18.4294081  49.4379520  99.8436928  34.0085554  46.1434746
 100.7264233  34.1948414  45.8236027  99.7080421  33.0817914  45.9461451
 102.7173805  17.3539591  43.6921835 102.9917526  16.4811039  43.9733887
 102.8844547  17.9134798  44.4506407  99.9498177   9.1874093  83.6484814
  99.5765972   9.1870368  84.5299149 100.5595875   8.4495693  83.6462593
  97.6693153  65.6535053  42.5570726  98.1120968  65.3071260  41.7823505
  97.8010654  64.9834919  43.2278633   5.9484369  35.7956123  43.6265612
   5.5176926  35.8589077  42.7741003   5.3442681  36.2244439  44.2326260
  95.3489590 101.5610027  53.3416176  94.7048759 101.6404343  54.0452337
  95.9014797 100.8249474  53.6046410   9.5685560  59.7743654  11.4470911
   9.4833666  58.9952898  11.9966483   9.3003303  60.4976845  12.0137453
  10.2814245  14.6396840  32.3676181  10.7078755  13.9208388  32.8341293
  10.6363404  14.5930421  31.4798737  84.8719692  13.4118116  45.4985952
  84.2386150  13.3331883  46.2119722  85.7211685  13.2642484  45.9149075
 105.8431244  10.9037113  34.9314976 105.6986713  11.7890477  34.5975137
 105.6397533  10.3322434  34.1910267  54.9029970 100.5934620   6.5253526
  55.2531481 101.4472008   6.7798090  54.9748182 100.0596333   7.3166198
   8.0148345  30.0102735  15.8755553   8.6558509  29.4008875  15.5095255
   7.6913518  29.5730877  16.6632473 102.2953892   6.8401545  34.1048336
 101.9356918   7.5200868  33.5351491 102.3816204   7.2640258  34.9587250
 106.6935730  15.0113571  13.6246026 107.2968388  14.8517323  14.3504322
 107.2205734  15.4727471  12.9722047 105.5976105  47.3877573  25.9622693
 105.5439281  47.1471405  26.8871784 106.1065865  46.6835356  25.5607295
  46.2806320  97.9857922  88.5649014  45.5848694  98.5544586  88.2351112
  45.9506559  97.0981312  88.4256077  87.4027061  39.0833569  34.9016452
  87.9534531  39.1987038  35.6759882  87.2667980  39.9709320  34.5700288
 112.0962811  89.3756676   8.3341867 112.7336979  89.1286850   7.6641673
 112.5289822  90.0690460   8.8324052  15.5442882  21.5687037  55.1983118
  15.9495842  20.9249210  54.6173525  15.8439636  21.3235140  56.0736990
  87.5346184 104.5734501  30.3768349  87.3184681 105.1414585  29.6373224
  88.4183979 104.8382282  30.6319094  79.8244429 102.3291779  53.8645601
  79.8119688 102.8930378  54.6379566  79.1905689 102.7270699  53.2678080
   0.4424620  21.1937094  10.8873403  -0.0922823  20.8906484  11.6211224
  -0.1768446  21.2918472  10.1641142 106.0578537  65.3466511  20.6429839
 106.2096882  65.8818626  21.4219093 106.7763519  65.5736065  20.0526547
   3.6540014  27.0266676  42.1471691   2.9294240  26.6953492  41.6166544
   3.2343653  27.5754237  42.8097439   0.3150867   8.8975376  10.1971352
   1.1073073   8.4435785  10.4844320   0.6282017   9.5575345   9.5785940
   1.2551568  73.2989264  25.3786182   1.7488928  73.4292936  24.5690131
   1.1113453  72.3535824  25.4218674  88.7463951   8.8413942  26.7634439
  88.8292027   7.9164159  26.5315175  87.8054619   9.0136904  26.7288446
 102.2528172  46.3631821  65.0483561 102.1570015  45.9135485  64.2087841
 102.9709625  46.9804716  64.9088764  17.1754920  37.4466896  24.7349286
  17.0766819  36.5354204  24.4591427  17.9965520  37.7308154  24.3332243
  87.7313328  24.2573118  46.1382866  87.8866768  23.4266186  46.5877819
  88.0816555  24.9205732  46.7329216  17.2799385  92.8666019  75.1120186
  17.0416987  93.5658646  75.7207012  17.7687657  92.2404289  75.6460524
  86.2518501  28.6188173  19.8444033  86.7401218  28.6346126  20.6675482
  86.6257000  27.8839016  19.3582273  19.9995887  23.6733294  47.4211311
  19.2226732  23.9934707  47.8795433  19.8847091  22.7235699  47.3895979
 101.7278194  36.2770915  43.7175465 102.5796318  35.8769417  43.5428286
 101.9085121  37.2161222  43.7600279   6.7945284  29.0886235  26.5354371
   7.3271394  28.2935190  26.5545321   6.2592649  28.9994764  25.7469082
  57.5677633  89.3404293  57.7410126  57.3866844  89.9168301  56.9985771
  57.7620220  88.4916401  57.3434639  25.7479548  45.6740236  47.5538206
  26.0736823  46.1109972  46.7669392  26.4754581  45.7236958  48.1739044
 113.6785030  17.1114933  50.0294638 114.2520142  16.7916751  49.3330240
 112.9431248  17.5145841  49.5679665  31.7665744  37.4592686  20.1433158
  32.2106719  37.7382112  20.9440660  31.8812013  38.1920099  19.5381844
 103.6587811  22.6462579   9.7670108 102.9080391  23.2311749   9.8694265
 104.3652153  23.2147098   9.4603324  92.7241135  16.2432384  51.0437822
  93.3217525  16.5706456  50.3715754  93.1045914  16.5432990  51.8692684
  21.0293722  59.7305822   6.1018240  20.7679582  60.4090452   5.4792649
  21.5379262  60.1971960   6.7650539  27.4313021  68.2951975  61.4983368
  27.1699619  67.4704885  61.0887146  28.3358359  68.1490135  61.7752457
  47.4028063  90.7377529  43.9304161  46.7722511  91.0047626  43.2615805
  47.0373440  91.0699463  44.7503614 112.2724342  17.2000039  17.4944174
 111.8736744  17.8438246  18.0798340 111.5350914  16.8254304  17.0124900
  85.7771492  10.0712144  38.3601546  85.8083534   9.8637486  39.2940784
  85.2435875  10.8642447  38.3086705 113.0160713  35.2056646  42.8021288
 113.2220268  36.1341119  42.9107666 112.0960999  35.1937056  42.5380468
  96.2845135  39.3143439  30.9844613  96.0715294  39.2792153  30.0519180
  97.1328068  38.8762641  31.0530615 108.0512428  45.4176140  43.2511044
 107.5086880  44.9864149  43.9113617 107.7606869  46.3295984  43.2607126
  73.2785559  26.9078326  39.6942067  73.1479216  27.7813005  39.3251228
  72.5175571  26.4072514  39.4000387 108.8500309  16.7696154  40.7680607
 107.9905224  16.8562877  40.3557920 109.1115856  15.8664238  40.5889797
  80.4052067 104.4437599  50.5477762  79.7582054 104.8528290  51.1224794
  80.5268669 103.5663033  50.9103918  28.4052229  68.1934834  92.2222519
  28.7778497  69.0751314  92.2309685  29.0857697  67.6419973  92.6081944
 100.3695965  60.7130051  38.6508727 101.2881184  60.9436846  38.7898898
 100.3791809  59.7664070  38.5091257  11.6437197  46.7299271   0.4445947
  10.7913780  47.0651484   0.7227561  12.2727644  47.1728897   1.0140851
  97.3441410  32.4436736  66.1539745  96.8768311  31.8400979  66.7315149
  98.1215382  31.9579339  65.8783960  18.4831476  40.1877594  39.0234017
  19.1897821  40.8246946  39.1292953  17.6868999  40.6766272  39.2313099
  92.6537514  23.4354496  71.4765167  92.6025486  23.0896378  72.3675966
  91.7944145  23.8278079  71.3221216  98.3650398  37.3764086  47.8316212
  99.1191578  36.9813037  47.3940945  98.0355549  36.6880202  48.4093714
  96.1927795   4.4214365  78.7153769  95.2751923   4.5625281  78.9485455
  96.3070774   3.4719735  78.7564564  94.8745632 102.8444004  37.2217989
  94.5547295 102.2348309  37.8869033  95.4727936 102.3228168  36.6867375
  96.1390018  40.7670689  17.7964520  97.0849800  40.7356262  17.9391980
  96.0038376  41.5467072  17.2578216  99.2420769   9.5478243  21.1620474
  99.0040493   9.3765706  22.0732260  98.4398937   9.3765485  20.6686902
  19.7746205  93.5726070  81.9995975  19.1477180  92.9978275  82.4387550
  20.6294274  93.2822227  82.3177433  21.4924717  78.4662628  92.2452831
  20.9940457  79.2187643  92.5639343  21.0956216  78.2567739  91.3997841
  35.2583218  23.5814571  25.3039837  35.5445457  24.4806194  25.1433158
  35.3605103  23.4626889  26.2482738   1.9868384  55.8300304  91.5686893
   1.4812645  56.2296772  90.8609390   2.1411440  54.9320555  91.2753296
  25.3817511  87.4545574  12.8927231  26.3217378  87.6270962  12.8390217
  25.3213167  86.5559196  13.2168043 109.3834114  26.0722184  12.8851974
 109.4412327  25.1228213  12.7777994 108.8725185  26.1920261  13.6857367
  96.5446377  75.3036594  91.2011051  96.2297249  76.1338902  91.5585613
  95.8296013  74.6876144  91.3606358  95.5360508  23.0674076  76.9497728
  96.4157391  22.8457808  76.6443920  95.0689220  22.2320080  76.9611645
  50.2391148  16.9500494  10.2704692  50.7767630  17.5428045  10.7956386
  50.7517481  16.8024409   9.4757068  85.8550167  28.3500862  16.5009940
  84.9046612  28.3305979  16.6135287  86.0239983  29.1674280  16.0323453
  95.1096535  29.9138284  10.9954977  95.1461983  30.0638938  10.0508416
  95.7413387  29.2116904  11.1510885   8.0926090  45.3082752  89.9908352
   7.5058365  44.5834351  90.2065468   8.4714144  45.5678606  90.8306885
  83.4872246  99.6850491  24.5238590  84.0595627 100.3810024  24.8468065
  83.0465698  99.3547249  25.3067636  87.9088306  19.2208910  22.0424151
  87.4348164  19.8711908  21.5240955  87.3643494  18.4349692  21.9966269
  69.8589373  65.7519770  30.8465195  69.6229792  66.6773796  30.7817984
  69.1118479  65.3443861  31.2846518  32.7811646  51.0204983  72.7201700
  32.6891518  51.8593264  72.2683573  33.1963873  50.4461765  72.0767546
 102.0645905  99.7208405  44.6055031 102.8708935  99.7951031  45.1159811
 102.3408508  99.8604774  43.6997318  84.8985672  35.2368546  29.2812061
  84.6067238  34.5449376  29.8747635  84.2106915  35.2890873  28.6176300
  29.1668272  99.4032574  30.0018454  29.7106910 100.1881599  30.0679135
  29.6372247  98.7424469  30.5100775  47.6130152  97.2768307  19.1946793
  48.5083818  97.1480179  19.5076573  47.2470856  96.3936996  19.1455436
   3.3227310  67.7728653  88.5275936   3.1434706  67.5581789  87.6121712
   3.2865158  66.9314289  88.9824581   5.9118086  33.6604381  89.0726280
   6.5844977  33.8762665  88.4267616   5.6629455  34.5040393  89.4503021
   7.9219383  13.9515853   7.7489638   8.5995901  14.6267593   7.7830166
   7.0978755  14.4383001   7.7651143 103.4433460  88.0946159  28.0560803
 104.1982937  88.4943771  28.4879041 102.7017403  88.6413479  28.3155727
  66.5118742   6.9781464  43.3500528  67.1901894   7.3609436  43.9064598
  66.1877775   6.2283123  43.8489962 102.9088116  16.9242561  12.9693782
 102.9569817  16.2546015  13.6516368 102.0006943  16.8945122  12.6682615
  19.2125547  76.7961216  76.3748932  19.7030401  77.2614956  77.0524502
  18.3190417  76.7499113  76.7150831  55.8421421  77.6518250  12.9278266
  55.9172440  78.2631826  12.1951377  54.9139547  77.6702547  13.1609726
  80.9001064  20.4603386  15.2622771  81.3813305  19.8785865  14.6738744
  80.0807285  20.6421280  14.8020482  78.4354067  25.1701903   7.5458759
  78.7014103  25.3232837   8.4525383  78.5105276  26.0272288   7.1262610
  92.2285461  25.5243778   4.1876355  92.6871204  25.2807355   3.3835369
  92.9272747  25.7131577   4.8140353  86.8132687   3.6750549  77.1546888
  87.0236778   4.3231758  77.8269243  86.2822819   3.0215520  77.6099014
   9.3109643  24.3913865  73.7182045   8.8487351  23.9384532  74.4234896
  10.2297926  24.3770576  73.9861250  45.0386190  98.6209297  11.1355126
  44.7770548  98.6309338  10.2147973  44.6404982  99.4085407  11.5061772
  75.6866217  34.8170567  25.5793333  75.0945425  35.5691695  25.5780959
  76.2766743  34.9755239  24.8424768  23.4235477  81.0260868  90.8958054
  22.9353261  81.7655277  91.2578773  23.5389495  80.4299164  91.6357422
  95.8989716  17.6539373  13.7308788  95.9269810  18.3532834  14.3838429
  95.2612019  17.0292497  14.0761924  66.2450838  23.4023261  65.0318766
  66.3474035  22.9769039  64.1805363  67.1180344  23.3683443  65.4230690
  98.2205105  18.8744664  46.6438818  99.1155243  19.2138481  46.6457176
  97.8785229  19.0961230  47.5099897  23.5169530  94.3421268  80.6672764
  23.8038397  94.2538738  79.7583580  24.1799688  94.8995209  81.0746670
  90.9227943  49.5202732  26.6312313  90.3080273  49.6331358  27.3561859
  90.3691769  49.3181562  25.8769846  84.3663025  88.8787079  89.5685577
  85.2444935  89.0722179  89.8965359  83.9146233  88.4816170  90.3132248
  92.0487213  11.1273420  17.7464283  91.2322044  10.7868886  17.3808670
  91.8406200  11.3176358  18.6611509  34.2312860  76.1633396  71.8114948
  33.7541175  75.9651470  72.6172638  34.3766093  77.1088314  71.8455887
   5.4886836  19.7747982  15.3399014   5.1182759  19.2268467  14.6479630
   5.3367633  19.2795050  16.1447847  91.8018913  11.8123972   0.0783660
  91.6393566  12.7332687   0.2828373  92.5152874  11.5592694   0.6642197
  60.6917000  25.3994632   7.5888938  60.8885765  26.0711765   6.9359988
  59.7405243  25.2994132   7.5502819  37.4315953  67.8567123   8.5053390
  37.7663040  68.1913519   9.3373358  37.7703953  68.4652424   7.8487283
  41.9097233  83.5245323  36.0841179  42.4929285  83.5856152  35.3275633
  42.2190619  82.7559757  36.5635562  66.8251610   4.1254592  10.2849972
  66.6235876   3.2379398  10.5814934  67.7095366   4.0624022   9.9242520
  10.0893176  56.5250683  79.5934200   9.9182105  55.9053516  78.8842630
  10.5130410  57.2686291  79.1646910  54.4548225  84.2484093  10.6858683
  54.5052576  84.9356937  10.0215483  55.2584124  83.7418747  10.5679405
  70.7797766  28.9817476  18.8405120  71.6760492  29.1372395  18.5425925
  70.6039381  28.0706525  18.6055219  88.1922150  23.4549403   8.9279389
  88.1607914  23.6643195   7.9944479  88.6713123  22.6274347   8.9718044
 105.8582497  69.5689297  28.8996863 106.5979481  69.6916008  28.3046865
 105.2982616  68.9310074  28.4573030   5.8135879  66.3585091  87.2392368
   6.2925744  67.1553564  87.4669361   6.3156503  65.6526279  87.6465416
  62.7041388  23.0876899   5.6318891  62.7894688  24.0388083   5.6976461
  61.7706203  22.9409409   5.4794353  44.4156981 102.3506069  32.4189663
  44.1902971 101.4204311  32.4049234  43.6116266 102.7876854  32.6994324
   6.0263360  76.2902546  91.5081310   5.6471914  75.5976963  92.0492840
   5.2898300  76.6244650  90.9961796  12.2615135  26.1323404  42.7392817
  13.2146966  26.0451460  42.7309322  12.0163012  26.1695814  41.8147755
  17.1384919  52.2066927  86.2965202  17.0859158  52.8331947  87.0182991
  17.9493856  52.4333620  85.8412075   9.8975009  66.0573435  89.2363930
  10.7832336  66.4062309  89.1364574  10.0272012  65.1496983  89.5113277
  96.0029888  27.9370427  28.5776591  96.6286659  27.6760793  27.9018927
  95.7698727  28.8378763  28.3531976  59.6217108 105.5752277   6.7866629
  60.5760670 105.5016804   6.7821676  59.4542360 106.5169811   6.8224823
   5.2224886  46.9829655   7.3095810   4.4034252  46.9396973   7.8030330
   5.5797362  47.8472137   7.5137407  75.9373283 102.9836369  16.5124536
  76.6033077 103.0666065  17.1949625  76.4303732 102.7627945  15.7222843
 112.0133495  29.9911118  24.0899682 112.4618435  30.5766511  23.4798598
 111.3762474  29.5242047  23.5492992  50.7211924  88.5321617  72.7315950
  50.0884295  88.0171299  72.2310209  51.1808443  89.0527916  72.0728827
  61.7727613  31.7012691  30.5690098  62.1979809  31.5746450  29.7208428
  61.4998817  32.6187396  30.5655384 100.5878448  12.2552323  23.2908559
 100.2070332  11.9449282  24.1123962 101.1647511  11.5446126  23.0107999
  66.9166994 104.3558884  21.6415882  67.3865080 104.3158245  20.8085775
  66.0101938 104.5415497  21.3966155  90.8387852  51.7607164   4.7220096
  90.4039574  52.5294542   4.3529570  91.1949825  51.2994337   3.9626861
  25.3747892  71.3308382  76.9305515  24.6937156  71.9438601  76.6538334
  25.2112293  70.5418777  76.4138079  22.6582503  78.5043335  84.6774960
  22.3890948  79.4006300  84.4763947  22.2162604  77.9681206  84.0192032
  85.2317047  36.2864256  17.1579111  86.0314465  36.7828608  16.9841456
  85.2808285  36.0715008  18.0893755  59.6314955  28.8425183  15.6244755
  58.8906384  29.1165090  16.1651206  60.3656101  29.3701220  15.9390163
  27.7376509  58.8975239  77.4460030  28.4090710  59.5467806  77.2365093
  27.7381802  58.3020496  76.6965723  35.6894183  75.2704334  59.4214010
  35.1234794  75.9985733  59.1649580  35.3005433  74.9382925  60.2305317
 103.9161968  38.0033183   2.5475162 102.9653168  37.9423165   2.4561612
 104.1742420  37.1650839   2.9309303 111.2211418  26.4285803  54.8082209
 111.6995716  26.5870404  53.9944506 111.5682983  25.5974770  55.1322174
 113.9257050  77.3054790  88.0988121 113.0622673  76.9415092  87.9033089
 114.0896702  77.0576477  89.0087223 101.4920616  41.2786388  14.4939673
 101.2677574  40.8077288  13.6913657 100.8367920  41.9737244  14.5549130
  56.1954451 105.9209442   5.7429880  55.3995562 105.4004765   5.8521003
  56.2610960 106.4303684   6.5507078 111.5957451  12.0161831  35.9634471
 110.8021545  11.5317011  36.1908627 111.2778187  12.8623176  35.6484723
  98.8211441  37.1281695  34.0752864  98.6904240  38.0756283  34.0370035
  99.1252041  36.9642138  34.9679780  37.9349971  88.0758476  83.8065910
  38.1134081  87.2371674  84.2320633  37.1097922  87.9377747  83.3416080
 102.4176216  24.0042520   6.3752520 102.9246902  23.2457781   6.6647929
 102.9860687  24.4456315   5.7441568 102.7525234  18.5293996   4.2829582
 102.0825291  18.7198138   3.6263931 102.6138592  17.6091170   4.5067495
  74.4158459   9.5938683  11.8486905  73.8090229   9.1812479  12.4632978
  75.2017117   9.7662127  12.3672879  70.0964880  30.9170222  27.1358323
  70.3588533  30.0186968  27.3368478  69.1422081  30.8791184  27.0714498
  66.6878748  74.9590158  32.6768064  66.9586277  75.2552080  31.8077874
  67.2214222  75.4737425  33.2822943  59.8027086  86.1886692   9.2119497
  60.0359297  85.2995110   9.4788396  59.2381477  86.5095139   9.9152005
  91.2828255   9.5171255  27.9525828  91.8808460   9.6271771  27.2133303
  90.4264927   9.3757665  27.5489259 110.4143620   3.5963365  50.3048134
 110.2258396   4.2229185  49.6061850 110.3301144   4.1045919  51.1115456
 110.0818539   9.6951365  28.9788342 110.4797363   9.0103495  28.4412599
 109.6889973   9.2245537  29.7139859  26.5528107  68.8769388  87.2831249
  26.7187762  68.4912348  88.1433105  26.8247271  68.2018280  86.6614151
  43.9552641  25.3514528  44.2873859  43.4476852  24.5663118  44.0820742
  43.5753202  25.6755400  45.1039886  54.8212862  96.8066692  90.6537914
  55.5376768  96.5260029  91.2232018  55.2214432  97.4433422  90.0615406
  54.8734570 105.3352928  26.1756802  54.0238190 104.9543667  25.9537935
  54.8645210 105.4008484  27.1305919  86.6527176  25.5768728   8.9834547
  87.2185707  26.2903595   9.2783660  87.1910381  24.7907209   9.0751272
  10.5565810  38.9051723   2.4398172  10.4953349  38.7894559   1.4916131
  11.4526200  38.6464930   2.6552933  77.4899530 100.4188251  44.2960978
  77.8796864  99.9071789  43.5871887  78.1912470 100.5067158  44.9416113
  99.0931797  50.5952263  15.3806412  99.8538685  50.3405142  14.8584342
  99.4651890  51.0027409  16.1627984  98.8165665  17.5602984  13.7365854
  99.0998745  18.4710670  13.8170266  97.9695034  17.6111794  13.2937205
  86.0122013  99.4799423  31.3253927  86.2482452 100.3336430  30.9624720
  86.0006809  99.6172619  32.2726226 108.1832600  43.6256409  28.1371140
 108.5519695  42.9383373  27.5822282 108.7170219  44.3975687  27.9488182
  93.6155128  76.8712664  27.6776719  92.9556465  77.2868252  27.1225929
  93.1097031  76.4105940  28.3471203   1.3742003  13.6821318  77.9073524
   1.5983239  14.6053410  78.0243397   1.9623865  13.2157481  78.5012817
  71.1762667  29.7793674   8.8059604  70.7201958  30.3604341   9.4147229
  70.9466648  30.1131701   7.9387289  77.0610857  13.3636260   4.8990619
  76.4758205  13.3578563   5.6564659  76.6906309  14.0254724   4.3151498
 107.3156929  10.8292878   8.7559915 107.1118164  11.3284850   9.5468581
 108.1763458  11.1494851   8.4858596  41.3114357  93.7570763  11.6228521
  41.4829540  94.6978760  11.6641080  41.0554171  93.5999203  10.7140148
  71.2338400   6.4485681   8.2471418  71.5556622   6.7192250   9.1070312
  70.7256126   5.6561053   8.4201670  97.7120781  66.5525103  21.7375016
  98.4456062  66.0323334  22.0655036  96.9614124  66.2609386  22.2549105
  97.7732754  30.2152371  32.3009920  96.9042110  30.2058816  31.8998981
  97.8185558  29.3957543  32.7935648  62.3494530  38.7957883  87.2430897
  62.4145365  38.3582425  88.0919361  61.5360498  38.4629726  86.8638229
  54.2258692   0.2144591  92.0015907  53.7029171   0.9287302  91.6374874
  55.1305437   0.4523920  91.7986393  -0.1979648 101.6018772  73.1900692
   0.5716616 101.0356712  73.1324482  -0.0778780 102.2414494  72.4880981
  15.2993000  31.2346721  63.7363625  15.4495788  31.6955614  64.5617294
  16.1727238  31.1264515  63.3599949  70.7137728   2.3744623  10.9473526
  71.5813828   2.0939226  10.6561863  70.2267313   1.5594259  11.0687518
  88.0945396  11.4285302   4.2525283  88.6580944  10.6631827   4.3660355
  87.5399971  11.4354563   5.0326979  65.4390478  24.1747737  88.6941719
  66.0771894  24.5333743  88.0774021  64.6194506  24.1450572  88.2006168
  85.0710201  34.6461153  13.2790780  84.6198845  35.1670361  12.6147342
  85.3460693  33.8544536  12.8166413  64.1333771 104.0532112   3.5391814
  64.4220829 104.3056488   2.6621652  63.6861992 104.8292828   3.8767716
 113.4156036  44.6945000  65.1277447 112.7623940  44.4652319  64.4666910
 112.9969788  44.4819927  65.9619045  21.9302320  52.7340078  26.2873054
  22.6172066  53.3941269  26.1948943  22.2231174  52.1835804  27.0135808
   8.0155557  45.0039196  15.0373328   8.4252632  44.3220186  14.5049918
   8.7494487  45.5167294  15.3759480  14.6359575  32.3442435  36.2335825
  14.5798302  31.4420152  35.9188318  15.0391090  32.8253698  35.5109358
  38.2279873 104.8746872   4.7351050  38.5975718 105.7369328   4.9252722
  37.3391819 105.0570202   4.4301358  83.5710049  94.4911003  11.4974260
  82.9968643  95.2293205  11.7014217  83.2163143  94.1290665  10.6854200
  97.1459675  19.1032636  27.8199077  96.7899227  19.8665965  28.2746434
  98.0926514  19.2447996  27.8193831  99.4447327  21.4558959   4.0076947
 100.0136852  21.3387609   4.7684878  98.6840439  20.9043241   4.1903046
   7.9860145  21.9880295  14.0740240   7.7889132  21.0513592  14.0796351
   7.2872603  22.3766756  13.5477829  65.4274273  32.3188400  38.2425690
  65.5461121  32.1037483  39.1677070  66.2751341  32.1272039  37.8414488
  41.8046093  51.9705248  83.4616375  42.3602819  52.0371056  82.6850796
  41.3283777  52.8004503  83.4872437 105.9030437  13.4373713  33.7523913
 106.6137695  13.4159029  33.1115842 106.0417080  14.2512858  34.2366910
  29.9533582  90.3370380  14.3837070  30.5301094  90.7085228  15.0512326
  29.3426871  91.0438347  14.1745496  54.9856997 106.8311024  50.6379604
  54.5702362 107.4002361  49.9901152  55.8993673 106.7764091  50.3578615
  39.5118499  50.7792139  90.8940029  39.2506599  50.0908184  90.2823448
  39.3260098  51.5953493  90.4296589  92.5758076  11.4877391  33.2497525
  92.6722717  11.7434061  34.1671181  92.7321720  12.2943103  32.7586079
  56.3326550  93.7628269  16.2290323  56.0370588  93.1522369  15.5537260
  57.2012663  93.4451008  16.4755964  19.1996896  70.6700420  73.0772543
  19.9843526  71.0583878  72.6903105  18.8406873  70.1151466  72.3848343
  88.7971783  37.2840285  27.7562976  88.6216927  37.2764111  28.6972451
  87.9304123  37.2609901  27.3508143 108.3221626 102.1734524  53.2848215
 108.4545422 101.3579941  52.8013563 108.0523491 102.8057098  52.6187277
 109.8879242  73.8925171  91.9201660 110.2334785  74.0788841  92.7931404
 109.3253517  74.6407652  91.7204857  83.1961250   9.0452558  24.7134352
  83.1857777   8.0942971  24.6047950  83.9675426   9.3336755  24.2256165
  53.4528160 105.5452061  12.8036761  52.8974485 105.7763863  13.5482264
  54.1363239 104.9894905  13.1781411 103.3788776  35.8211637  46.4173222
 103.3679771  35.8735633  47.3730278 102.5572777  36.2303019  46.1456394
 105.0475121  48.1430101  19.3774819 104.1821671  47.7340746  19.3909812
 104.9808788  48.8224983  18.7065959  80.3376389  25.7123494   9.7373539
  80.8639717  26.1545706   9.0712839  80.9736538  25.2233982  10.2595067
   4.1752461  33.0738068  11.2971890   4.0445662  33.3631659  12.2001982
   4.6673226  33.7848401  10.8866727  84.7279167  19.4123113   9.1819322
  84.0338612  19.9431002   9.5728052  84.4658756  18.5085487   9.3573689
  96.4305592  72.4058723  17.7750480  97.3491287  72.6665306  17.8422785
  96.4597893  71.5098333  17.4396467  89.1070747  37.1245432  63.3462143
  88.3901596  37.2950053  63.9571238  89.8084545  37.7106261  63.6304760
 113.4953308  72.9257011  88.2017708 114.3403053  73.2189178  88.5427666
 112.9484177  72.8153849  88.9795589  23.4190083  99.3818092   8.5090810
  23.0350065 100.2562714   8.5730791  22.8055167  98.8901997   7.9630262
  78.0371809  10.9086049   4.1529605  77.4274349  10.2075887   4.3832210
  77.5725937  11.7142081   4.3796617  84.1433907   8.3066797  20.7940626
  83.8572884   8.2840270  19.8809016  85.0871944   8.4587574  20.7456493
  50.6476593 102.2120762  19.5007324  51.0175276 101.3654995  19.7512007
  49.7728634 102.0036793  19.1728187 101.2753010  10.7914269   0.6014454
 100.8696079  10.0326657   1.0208759 100.5841064  11.1585069   0.0503312
  90.7499504  12.1360683   6.4950120  89.9484730  12.6104772   6.7159081
  90.8479500  12.2580695   5.5506891  14.6746123  71.0777092  86.6263390
  15.1255691  70.2360249  86.5596867  14.6668279  71.4167976  85.7312489
 100.0499153  21.7957449  33.7184668  99.4967079  22.4543142  33.2983756
 100.9424782  22.0435762  33.4773302  78.8905287  18.1533730   6.2441927
  78.6207581  17.9705036   7.1442008  79.6780634  18.6899006   6.3345331
  84.5997524 104.9734020  11.1364603  84.5454407 105.8275890  10.7079327
  84.5454502 105.1706600  12.0715392 110.7015514  21.6853523  46.6564178
 111.5460968  22.0571327  46.4019442 110.2314186  22.4140382  47.0616579
  19.8644865   5.2251226   2.9827023  19.7419858   4.3101308   2.7296901
  18.9766908   5.5778074   3.0432242  22.1298122  29.0569520   3.5180467
  21.5565991  29.7916126   3.2991180  23.0150890  29.3965411   3.3869249
  21.8539286  17.6360214   9.9961889  21.3576770  17.2179031  10.6998527
  22.5527787  18.1112564  10.4456222  12.3969400  83.8382721  27.7659869
  12.3780406  83.6133194  26.8357897  11.8150675  83.2000160  28.1786323
  10.7978129  30.6246901  43.8245773  11.5103054  29.9866700  43.8635063
  11.1856532  31.3913918  43.4027052 104.5711708  35.1826024  18.2366908
 103.8177490  35.6172705  17.8371143 104.3480015  34.2519522  18.2188606
 108.0996513  90.0953388  86.1077499 107.8935432  89.9433327  85.1854515
 108.4425449  90.9886742  86.1324692  78.5789299  96.3203812  26.6930437
  77.6665258  96.5374374  26.8844604  79.0199757  97.1680355  26.6364479
  74.8467493   6.2956059  40.5614948  74.1444683   6.9241244  40.3941679
  74.4932365   5.4569244  40.2650595  78.9477634  35.5189657  20.7755995
  78.2436657  36.0588098  21.1348319  79.5201492  35.3437877  21.5225387
  58.8959599  80.2662468  16.3730419  58.3631611  80.6379986  17.0760083
  59.7199726  80.7515144  16.4148283  43.1104326  64.8290539  91.8520451
  43.2503176  64.6108055  92.7734661  42.5405407  64.1330433  91.5248966
 101.6511536  37.5460720   9.2693520 101.8056870  38.2786226   9.8657787
 102.2357655  36.8554878   9.5816934  60.8490133   0.8040348  75.2078676
  61.6976309   0.3681154  75.1300383  60.9963131   1.6802663  74.8518419
   7.8324413  83.4063816  89.1373825   7.0547682  82.8675365  89.2826748
   8.2573593  83.0130768  88.3751583 112.3352051  45.9877062  26.7519164
 112.6863766  46.8425369  27.0012522 113.1062222  45.4711151  26.5176177
  82.7533340  12.9378366  55.2103949  81.8494034  12.7023804  55.4194403
  83.2766151  12.4968100  55.8796501  88.3508492  10.9454513   1.4953434
  88.1404114  11.1745965   2.4005738  89.2919159  11.1037767   1.4207675
  59.8691988  78.3636141  36.1715031  59.5048714  77.4940205  36.0062766
  60.7984304  78.2784748  35.9581661  99.3189335  18.2263196  30.5057907
  99.4604301  18.6965418  29.6841455  99.0284061  17.3550403  30.2361584
   7.2803378  29.9474740   7.3576170   6.4151818  29.5476508   7.2688568
   7.3433137  30.5492640   6.6159201 110.7860565  96.1553574  89.4964123
 111.0088348  96.2630939  90.4210758 110.4301929  97.0046997  89.2352486
  94.2207336  37.8640795  21.3830090  94.4320202  38.0291963  22.3018837
  94.3357563  36.9197750  21.2767458   2.4287659   5.6220645  22.4372673
   2.6574674   6.4157277  22.9210281   1.8802556   5.1225692  23.0421424
  19.2974520   9.5444983  26.9454646  20.2413321   9.7001237  26.9122434
  18.9513409  10.2788019  27.4526501  35.3582549  90.3351402  91.9126797
  35.1369643  90.6410313  91.0330772  36.0506201  90.9278202  92.2052383
 106.7902169  -0.1756695  40.5369473 107.4744925   0.4765770  40.6871796
 106.3745150   0.0973293  39.7190881  10.6350243  27.1586800   2.4267116
  10.0953388  26.4520359   2.7811480  10.5015695  27.8884339   3.0315924
  10.8454800  31.7437053  22.8829455  10.7205009  31.8430638  23.8267350
  10.2962983  30.9963894  22.6459837  12.1546113  57.8192759  33.6093068
  12.7442992  57.3029995  33.0597973  12.6942420  58.5443783  33.9243555
 106.4925289  48.7421799   9.2379057 107.1137238  48.1200171   9.6164083
 106.4689827  48.5207987   8.3069563   2.4755877  13.0396354  29.1595173
   1.8564019  13.6437881  28.7498355   2.7259624  13.4708333  29.9765944
  73.6752748  96.2711811  61.0344934  73.1465769  97.0655823  60.9593630
  73.3985519  95.8766365  61.8615341  89.7405529 100.0206947  34.2089033
  89.5526314  99.3142509  34.8268509  90.2069664  99.5929623  33.4907532
  16.7459774  28.8741612  53.1671619  16.5203226  29.3288732  52.3556519
  16.3904965  27.9925823  53.0545473   2.9392141   5.1557249  18.2493508
   3.3377960   4.7454873  17.4818420   3.0713695   6.0942000  18.1150687
  91.5728855  38.3890891   7.9633248  91.9409275  38.0139112   7.1633154
  92.3125267  38.8264799   8.3850509  12.9436076  36.5117240  32.3079014
  13.1624699  37.4433613  32.2883129  12.2406781  36.4443588  32.9541111
  62.7118874  93.5427189  89.9263382  63.3499432  93.7579060  90.6066418
  62.6758194  94.3248940  89.3757629 108.2055569  28.8879943  20.3475237
 107.2788525  28.8903141  20.1078486 108.6516476  29.2518830  19.5827878
 110.5550289  20.9256768  12.8082943 110.0794983  20.1805687  13.1756079
 110.6860638  20.6962037  11.8882918  73.4612226  15.7616889  14.0802634
  73.0898094  16.6438866  14.0768480  73.0199957  15.3132629  13.3588290
   5.2500838  52.2708368   3.2270640   5.7674050  52.7742052   3.8557351
   4.8661703  52.9308605   2.6498249 112.5557041  45.4756594  13.6573732
 113.3877659  45.2902603  13.2220113 111.9862080  44.7488499  13.4050715
 104.9933052  52.1326637  25.8396363 105.2474880  52.2204256  24.9209857
 104.4725132  51.3300562  25.8684254  25.7184219  95.3864479  69.1341829
  25.7506227  94.8709011  69.9400377  24.9551558  95.9537220  69.2431021
  28.6363292  95.9210300  92.0357990  28.8578582  95.3625870  92.7809811
  28.9059091  96.7988873  92.3058701  89.0763187  90.5009270  79.0720272
  89.4928837  91.3523006  78.9383554  88.4325600  90.4358673  78.3666420
  50.9110117  86.1808014  10.6636477  50.9211254  86.9306183  10.0687480
  50.2000141  85.6277466  10.3398609 106.5594292  58.4245872   1.0964108
 107.4312210  58.6104870   1.4452054 106.4152622  59.1037416   0.4374735
  86.0207748  27.5191927  12.5679088  86.9462013  27.5023437  12.3239088
  86.0066319  27.2136879  13.4749365 113.8923550  47.6952505  89.1235733
 113.0134583  47.3546982  89.2902756 114.3530846  47.5866604  89.9555397
 105.8767319  28.3823609  18.3576906 105.4476929  28.7093282  19.1484165
 105.1663113  28.0068898  17.8375411  59.3095541  14.2241442  80.1654243
  60.0276709  14.5851815  79.6456242  59.4638491  13.2794642  80.1634979
  87.6981544  18.7447381  78.3483267  86.8413353  18.7216520  78.7744331
  87.6388168  19.4733834  77.7304411 112.6413918  62.5151920  91.1606216
 112.0067978  63.0332279  90.6654930 112.7685833  61.7256689  90.6345844
  61.8557739  41.8509531  14.1435349  61.9418621  42.6471710  14.6678007
  62.6181221  41.8616581  13.5647929  83.3431530  33.5585737  10.6176758
  83.4099579  34.3543339  11.1454391  83.5838318  32.8524780  11.2174547
   6.6966671  42.5976706  25.1594281   6.7325789  41.8198013  24.6027732
   6.6224289  42.2523308  26.0490680  91.8416786  54.5927572   6.5181458
  91.7684746  53.7721729   7.0054966  92.2049809  55.2143526   7.1489096
  86.5873814  60.8089733  15.0834250  86.6500759  61.6489744  15.5380726
  87.4963760  60.5398035  14.9511325  35.5247378  49.3840647   9.3438756
  35.9829760  49.7517824   8.5882074  35.3113484  48.4884405   9.0820438
  29.1149855 101.2318325  82.6789570  28.9185596 100.8218670  81.8365955
  29.1378450 100.5038834  83.3000851  75.9398222  81.6684914  79.2914438
  75.4748869  82.4703026  79.5305395  75.3117371  80.9670067  79.4636822
 103.7539864  79.5100260  84.9370003 103.2247543  79.6432209  84.1506100
 104.3844032  80.2302265  84.9262524  93.2728195  63.1664515  12.1446776
  92.7525520  63.7285566  12.7187848  92.8380013  62.3146725  12.1852887
   6.3692844  40.2319050   4.1641098   7.2841394  40.0283146   4.3585864
   6.3284147  41.1881256   4.1785538 113.1513982  10.6450379   2.5897610
 114.0348242  10.9792864   2.4346210 112.5928231  11.4217997   2.5603190
  21.1043167  52.1728516  89.5368099  20.3688192  51.6559935  89.8656368
  21.0861588  52.0393419  88.5891342  95.1228714  14.0954363  28.0135036
  95.7545948  14.7433972  27.7015734  94.4367027  14.6132696  28.4345198
 102.0817852  40.3126383   8.6511427 102.2781277  40.9964085   8.0107236
 102.1826077  39.4938040   8.1657749  53.9310455   6.3126993  85.0122070
  53.9988089   6.8434465  85.8059025  54.3375921   6.8479663  84.3307114
 101.2967491   3.7913561  22.4058604 101.7499924   3.0041033  22.1041489
 100.9955025   3.5713032  23.2873726  33.2557869  13.0183339   9.2163992
  33.8725138  12.3579061   8.9006251  32.4609947  12.5255895   9.4207001
 100.1009846  26.5531492  48.9097977 100.6193161  25.8660722  49.3287039
 100.3488541  27.3547244  49.3705225 110.6734276  78.2358408  84.7882462
 110.7806683  78.6599016  85.6396580 111.5286827  78.3237410  84.3674755
 102.2575474  12.9602623  38.4171772 102.5261116  12.1716845  37.9457426
 103.0739403  13.4341025  38.5759544  21.1540556  99.0971661  29.1769600
  20.3833318  99.5196724  29.5560503  20.8451462  98.2318497  28.9085698
  89.6497631  15.7495117  90.5400944  90.1692486  16.2547302  89.9147034
  89.5701790  14.8832357  90.1407623  87.5774479  18.9718294  25.6942844
  88.1840420  18.7370598  24.9920273  87.9825020  18.6216176  26.4877033
 103.0342960  55.0399208  18.2773209 102.2796726  55.5091190  18.6331666
 103.0372429  54.2033100  18.7424099   1.4144342   3.0529746  18.8894975
   1.6925971   2.2202504  18.5081482   1.9002131   3.7155128  18.3982801
 100.5798721   3.4766886  39.1577077  99.6904755   3.1252012  39.1984034
 101.0358143   2.9038396  38.5411096   4.6121207  43.1591415   9.5065516
   5.2948123  43.5877180  10.0227749   4.5621485  43.6739492   8.7011266
  11.4620793  31.0432863   2.9947215  12.3410928  31.0960960   2.6195166
  10.9381294  31.6420221   2.4625334  84.1755390   9.3949008  88.6404705
  83.9644146   9.4165641  89.5738411  84.7266674  10.1651049  88.5016346
  91.4274216  27.5668764  11.3761795  91.5963078  27.1535420  10.5295014
  91.7239571  26.9237018  12.0200944  98.7971401  27.0407438  29.1571259
  98.5930061  27.1574855  28.2292628  99.6068764  27.5341010  29.2881322
  96.6617107  29.1634464  42.8098869  97.4705029  28.7002134  42.5919294
  96.5091038  29.7430730  42.0635748   2.4876849  44.3085575  42.4879456
   2.1849774  44.6020603  43.3472824   3.3410534  44.7280931  42.3784733
   2.3269270  68.2879162  19.2119598   1.5968928  68.2562542  18.5936725
   2.5494960  67.3699474  19.3669748  93.4983635  37.2440624  26.2600231
  93.0154705  36.6410351  25.6948662  92.8373146  37.5935483  26.8576074
  87.0131779   8.5619605  20.8360052  87.2575665   7.8460401  21.4224863
  87.6469040   8.5122770  20.1203609  20.1126933  28.7398601  33.3460784
  20.7197070  29.0418291  32.6703715  20.1256800  27.7857256  33.2706380
  62.1928501  21.5733004  23.1824780  61.3764286  21.3418770  23.6253476
  62.8676748  21.0842204  23.6532664  14.2409158  63.7926388   0.2136459
  13.7770212  64.5876074  -0.0491543  15.1674485  64.0138245   0.1195803
  15.9916186  66.2199593  42.8659248  16.1545789  66.7654371  42.0964241
  15.2975869  66.6770601  43.3409071  90.7807064  46.2990952   0.5188628
  90.1016426  46.2885332   1.1933865  90.9463024  45.3751945   0.3312148
  18.1555176  49.0553951  35.7362032  17.8558159  48.8076496  34.8615408
  17.4867499  48.7074184  36.3260317 108.6863518  13.8780057  27.6467657
 109.3651104  14.2511058  27.0843530 107.8991890  14.3810916  27.4381447
  44.8295975  97.7229309  14.4252825  44.9650097  97.6604080  13.4797752
  45.4467773  98.3962250  14.7116256 109.5287514  50.3233910   6.3044059
 110.2630234  50.2678776   5.6928468 109.4913960  51.2476492   6.5505350
  97.7495670  21.6756153  35.6518960  98.4304333  21.5872741  34.9849248
  98.2148743  21.5816021  36.4830875   4.1556475  16.2074149  24.2503762
   4.6824744  15.5712032  24.7340274   3.9539579  15.7713771  23.4224725
  30.8082867  30.4944968   9.6635365  30.0885868  31.0839152   9.4380438
  31.3693357  30.4938984   8.8880002  93.2663536  34.1035962  38.2670808
  93.5790825  34.9077630  37.8526592  92.3126221  34.1582727  38.2066917
  99.4038773  32.4441147  23.7456608 100.1327705  31.8975067  24.0392160
  99.6117210  33.3181190  24.0760374 105.2982807  57.5141048  91.3168049
 104.8038006  58.3271885  91.2137794 106.1918640  57.7996778  91.5070438
 112.3597908  48.9562702  32.4301934 111.8910980  48.3801460  31.8263364
 113.1801319  48.4973669  32.6109672 100.1960564  51.4926243   4.3910491
 100.2749348  51.3173819   5.3287601 101.0786629  51.7445135   4.1193956
  23.6132312  31.5245485   3.2886192  24.4366527  31.3021135   2.8541869
  23.0681467  31.8941116   2.5939709  16.0814190  47.2794867  10.7264209
  16.3092005  48.1874418  10.5265176  15.5003631  47.3397017  11.4846945
  75.5381584  38.2610130   7.2985399  74.6766996  37.8443408   7.2761863
  75.3805208  39.1156197   7.6998246 101.6270351   6.8905157  46.3246298
 101.7351532   6.6714811  47.2501421 101.5391159   7.8435951  46.3127470
 106.4159775  73.5402822  18.9098203 107.1006489  72.8736687  18.8543618
 106.3997269  73.9398670  18.0401659  61.1617851  98.9927673  72.7254772
  60.5306959  98.8063908  72.0303345  60.8495855  98.4854412  73.4747267
  13.8995552  19.4422662   4.3739340  14.7083569  19.8637879   4.0834326
  13.7958360  19.7238195   5.2828908  12.5092602  12.3264182  19.7903681
  11.7322338  11.9835150  19.3489182  12.2465992  12.4101257  20.7070112
  39.3282032  98.8953304  86.7498398  39.8239732  98.4183693  87.4153805
  38.8082886  98.2224178  86.3104057  94.4255352  20.5742955  43.8558292
  94.6157932  21.4229035  43.4559536  95.2284145  20.0672841  43.7351894
  91.2137604  33.6916351  19.7540939  91.9735050  34.0353274  20.2240872
  90.4733562  34.1917944  20.0974178  97.6461983  33.8072038  22.0783973
  98.2229519  33.1724882  22.5035238  98.0545616  33.9699554  21.2281108
  54.5384121  38.4514022  15.7739270  54.9873590  37.6596832  15.4775119
  54.9535465  39.1603088  15.2826595  58.3443260 104.5838833  46.0768318
  58.6397123 103.8294315  45.5671406  58.6052179 105.3425884  45.5547953
  11.7488599  11.9351196  33.1571436  12.5437999  12.4400771  33.3283758
  12.0418525  11.0239434  33.1450653  62.6807261  16.0055363  12.6346433
  63.2595730  15.9796143  11.8727434  63.1409883  15.4972827  13.3025253
 101.9926739  19.4720006  26.1539841 102.1734333  20.2953696  26.6074395
 102.6910782  18.8829839  26.4395213  41.9536686  38.8191819  18.6813378
  41.5048265  39.6448851  18.4997141  42.6405048  38.7686539  18.0165541
  21.7525434  83.4156322  70.3010988  22.1933031  83.4318733  69.4515705
  21.4449644  82.5139809  70.3941488  22.9686761  64.8749924  92.1904945
  22.7024174  64.1508532  91.6239548  22.4887919  64.7300720  93.0059338
  81.6486740  78.0581665  68.2240725  81.2904739  78.9330101  68.3743000
  80.9553909  77.5925636  67.7563143  87.2970963  48.7055063   4.2808717
  86.4281082  48.3227396   4.1601446  87.1263695  49.6156645   4.5231476
 105.9467888  49.0881491   1.8671571 106.4736557  48.6510992   2.5362077
 106.4606190  49.8578453   1.6226535  88.2729053  88.3652306  14.5388746
  87.3600674  88.2626820  14.2697155  88.5127735  87.5126648  14.9019635
 112.8416824  94.3681622  73.2397461 111.9859886  94.0198326  72.9893780
 113.2939529  94.5127010  72.4086046 109.8150253  22.5215793   5.7751626
 110.2357197  23.2332468   6.2576354 110.2445602  21.7283869   6.0954392
   4.6903238  59.7335339  38.6019468   5.1847154  60.3378487  38.0482197
   3.9367479  60.2432775  38.8994670  18.4115660  23.6689711   3.1402671
  18.3228290  24.6052670   3.3183330  19.3214738  23.5631561   2.8625929
  45.9797478   3.8918909  66.9847345  45.1540518   4.1668084  67.3833227
  46.0257387   4.3842971  66.1651897 103.6270142  31.5072584   9.9693263
 103.2129192  30.7164931   9.6237189 103.3593273  31.5358996  10.8878875
   1.8091868  33.5021567  15.7813573   2.0459017  33.0147552  16.5704310
   1.2709355  32.8929591  15.2759898 101.7075348  31.4003491  24.7123122
 102.3908615  31.1926317  25.3496170 101.1670685  30.6112242  24.6748734
  30.2968478 104.6694088  91.6011524  30.3407335 105.4153538  91.0029221
  29.8885298 105.0206757  92.3924255  49.7657967 102.8336811  77.8706217
  50.4799557 102.2279835  78.0689764  50.2028990 103.6595154  77.6628447
  89.1431141  59.8126173  43.7821913  88.3490086  59.3759394  44.0903139
  89.7590923  59.7312307  44.5103216 104.9976444  52.0838213  22.8801847
 104.3641090  51.3663960  22.8675008 105.8492088  51.6526651  22.8081536
 110.5256653  56.0711288   3.9686936 111.3514423  55.9399128   4.4346452
 110.3732395  55.2429533   3.5135883  10.1682746  63.5192680  21.8957281
  10.4611063  62.8329468  21.2961912   9.2326182  63.3534336  22.0109582
  16.5822268  49.2246580  22.7952194  16.1189985  48.4454823  22.4877572
  16.0769427  49.5204830  23.5524559   6.7572320  50.6668949  28.8859081
   6.8642771  50.4788589  29.8183322   7.6428443  50.6108093  28.5270500
  40.0496006 105.6743336  49.9476957  39.3266916 106.2758446  49.7693205
  40.5741024 105.6861210  49.1470814  13.0234957  78.1204271  80.5162048
  13.1576717  77.7835417  79.6303511  13.9039218  78.1740665  80.8879662
 108.8658714  75.1882505  16.6003060 109.2959690  75.1827192  17.4554157
 109.5791721  75.0720453  15.9726703   7.9717118  49.3315172  12.3395717
   7.9191482  50.2274704  12.6723456   8.8439560  49.2715263  11.9499278
 101.2219524  11.4151251   7.3041826 101.5669918  10.6430042   7.7525198
 100.2758312  11.2726903   7.2756624   0.0636118  36.5663576  22.1465611
   0.9893509  36.3988423  21.9699883  -0.0358144  36.3978410  23.0835509
 107.4864483  51.0360146  22.4282742 107.5508308  50.0866508  22.3243928
 108.3642006  51.3076639  22.6965833  89.7678185  44.0641212  15.4298687
  89.1247940  44.2573500  16.1120820  89.3778610  44.4117498  14.6277976
  81.6945839  30.2364683  81.9812965  81.4219093  30.3871465  82.8863907
  81.9087315  31.1076379  81.6474819   6.2764871  24.6846223  11.1265016
   6.3432819  24.0258002  11.8176770   6.2702787  25.5207610  11.5924048
   7.4391216  51.1918306  54.9115753   7.5635540  50.6557417  55.6947470
   6.5110719  51.0933065  54.6988535  76.9832802   7.8196383  79.2099619
  77.5973463   7.2423440  78.7562132  76.7063570   7.3190218  79.9773788
 106.1408710  30.6922722  24.8570085 105.9832096  29.7898006  24.5796609
 106.1013222  30.6594753  25.8128285  41.0459900  10.5716991   0.8998886
  40.3042412  10.0839889   0.5418724  40.6701899  11.4050901   1.1835559
  70.2553177  89.3729877  70.9605265  70.7740641  89.9839973  70.4372644
  69.5913887  89.9204445  71.3797188  94.3457508  46.8007326  11.2905753
  93.5625648  46.7574358  11.8391907  94.0322018  46.5984249  10.4091048
  98.6585236  51.8224812  28.0797768  98.4172058  52.5273895  27.4788547
  97.9861927  51.8475151  28.7606430  85.4528522  70.1674604  12.0522082
  85.7649803  71.0721493  12.0708692  84.7166729  70.1554203  12.6638651
 106.0695744  44.1363478  75.8050251 106.0283470  43.2715034  75.3968811
 105.3467274  44.6228886  75.4087973  95.3916550  35.7800364   1.6673695
  94.8778534  36.4494705   1.2156019  96.1366940  35.6187248   1.0884660
   3.9999333  37.2976851  15.5143487   3.5028079  36.9860196  14.7580659
   4.9092996  37.3074770  15.2157032  40.3800678  94.6540451  75.8308983
  41.0774899  94.6248531  75.1759291  40.7365942  94.1793060  76.5817261
   8.9798379  29.5133710   0.7550661   8.2417005  29.5255685   1.3643578
   8.9392787  28.6484742   0.3469720  56.1353445  25.6635880  87.7679253
  56.7593670  25.5755806  87.0474529  55.3096437  25.3364682  87.4109268
   5.2869481  39.7703958  22.0654178   5.0090820  39.0278244  22.6017118
   4.9481356  40.5382824  22.5256205   7.9582125  49.1281223   5.5727369
   7.6065642  49.0405941   6.4586902   8.9029258  49.0153790   5.6777960
  97.0464230  77.9407787  10.8849144  96.6334057  77.5885868  10.0964928
  97.9693699  78.0359793  10.6496859   2.5603560  35.8772063  11.4713955
   2.1459301  35.1046443  11.8556225   1.8311706  36.3967848  11.1329317
  23.9862704  28.0947685  23.7314892  23.9695597  27.1599960  23.5261726
  23.0977082  28.3971524  23.5437274  16.9037390  90.0458336  88.0886745
  16.9471705  89.6728992  88.9691639  17.2750413  89.3686485  87.5231647
  71.7513990   5.0438046  84.2426491  71.0259867   4.4198629  84.2691231
  72.4653435   4.5634019  83.8234425 110.0915051  36.0330963  36.1396980
 110.8350277  35.8200502  35.5757689 109.3494701  36.1077571  35.5396724
  17.0024633  51.5713120  18.8798249  17.8804326  51.2250757  19.0395772
  16.6542554  51.7532301  19.7526884 100.1098061  35.0516701  32.9024816
  99.5695686  34.3063903  33.1650329  99.5674706  35.8180714  33.0888581
   5.3458494  24.6132708  40.2476931   5.3214443  24.3356562  39.3319607
   4.5376539  24.2657900  40.6249332  93.9492607  60.7815218   8.7341642
  94.0875530  61.6079998   9.1968119  93.1323528  60.4381943   9.0961373
  12.6268363  64.1389561  85.0489902  11.8169010  63.7755680  85.4070187
  12.3669529  64.5249462  84.2125034   3.4646735  42.2860384  55.8036900
   3.5589677  41.3629675  55.5685711   3.1083006  42.2717476  56.6919613
  84.1034031  61.0690165  90.7419395  83.6267757  61.5821171  91.3944530
  83.4867287  60.9721804  90.0162888  82.8718662  32.8426719   2.2807364
  83.0154610  32.4663424   3.1490630  82.2099400  33.5199952   2.4197170
 112.5322533  54.0650845   0.8176821 113.2897091  53.9645052   0.2411583
 112.3589134  55.0064421   0.8233728  29.3376827  50.1242447   3.5282734
  29.8170733  50.9314775   3.7147984  28.5559130  50.4132605   3.0575949
 107.1332169  44.3219852  18.5475993 107.5072575  44.7745371  17.7916062
 106.1870098  44.3686247  18.4106255  61.0239410  96.3920784  70.5469751
  61.3692379  96.6419125  69.6898985  60.0751829  96.4833450  70.4588366
 110.9109783  35.9470677  17.2643530 110.4296780  36.7166114  16.9603956
 111.2843418  36.2143970  18.1042135  22.7069879  72.1940851  86.4760208
  22.0297909  72.7725124  86.8268108  23.2709718  72.0034504  87.2255611
  91.2704182   1.5462051  67.0094252  91.1631393   2.4746031  66.8025351
  91.0585690   1.0929401  66.1933947 111.7650032  49.6338892  43.5571051
 111.6940784  50.2295399  44.3030262 111.7472458  48.7595463  43.9462614
  13.2592142  52.8848600  14.3396926  14.0494204  53.2726717  13.9636469
  12.8263402  53.6110306  14.7886157  81.1567497   9.6596277  70.0088787
  80.2854156  10.0546360  69.9778128  81.1333466   9.0879399  70.7762480
   1.9606382  36.7371273   6.4951974   2.0321640  37.3772478   7.2032678
   2.6487526  36.9850850   5.8777446  20.2444887  98.8395023  91.2649155
  20.0564599  98.9485645  90.3327274  19.3843329  98.8437748  91.6848564
  53.3973026 107.0297813  78.7030983  53.6043882 107.1325111  77.7742338
  53.1556892 106.1080551  78.7941074  99.5227432  21.6604424  83.9692593
  99.9301529  21.7164898  83.1049061  99.8143482  22.4510860  84.4232178
  16.8336535  73.5456944  23.2932806  17.4830616  72.9284382  23.6301708
  16.9221985  73.4909487  22.3417592  16.2346530  50.1354074   4.9692452
  16.1027372  49.5657110   5.7270527  16.8929315  49.6833611   4.4414645
  13.2646179  38.6904860  20.4214096  13.2246530  38.9786005  19.5094740
  13.3770061  37.7414060  20.3680348 100.4493809  44.5423031  14.1596615
 101.2300396  44.2691231  13.6778164  99.7412586  44.0182066  13.7853372
 104.7682762  57.0249844   3.0281711 105.3516006  57.4497223   2.3992360
 104.9833775  57.4322796   3.8672605  40.1186943  99.4876385  82.0079994
  40.0940609  99.8736668  81.1324310  39.9201822 100.2159595  82.5965309
 106.3895893  36.9125414  14.7366607 105.9099770  37.3876548  14.0580809
 106.1868000  37.3814273  15.5461383  80.7007599   7.5032550  79.5795631
  80.9382439   7.8450012  80.4415703  81.0804653   8.1277192  78.9614201
   7.5791323  36.4335465  89.0570450   7.8978109  35.5907106  89.3799973
   7.8478867  37.0634341  89.7258091  81.9163132  25.1682901  88.3924770
  82.6243877  25.6576276  88.8113022  81.9434261  25.4446006  87.4764252
  46.2691736  21.8861246  91.1446285  46.8097401  22.6603270  91.3015652
  46.0256147  21.5827727  92.0192051  42.5915194  56.5630579  63.9840746
  42.7344179  55.6435394  63.7598085  42.2368908  56.9522381  63.1846952
  14.2321253  44.0680552  73.9086580  14.9289882  44.7210598  73.8438606
  13.5311353  44.5123625  74.3855572   6.2638015   5.2694559  64.4715786
   6.8183506   5.8284634  63.9273214   6.8752241   4.8232231  65.0574732
 104.3874264  25.5406761  72.1528864 103.7569237  25.3263831  71.4653063
 105.0558186  26.0638070  71.7103720   9.0062577  54.5783091  90.9113503
   9.9154574  54.4798279  90.6287003   9.0123808  55.3542376  91.4718151
 101.2270832  39.9955106  48.4281540 101.6305637  39.4500852  49.1033888
 101.9312191  40.1604223  47.8010750  52.7341843  91.3560200  14.8546827
  52.0418835  91.8049049  15.3399134  52.2677946  90.7656479  14.2629361
  70.2876234  86.3965321   5.5135792  69.8611403  86.2185287   4.6753338
  69.6998930  87.0089149   5.9560651  99.5368958  34.5963955  91.8674278
  99.4263458  35.5459094  91.8180943 100.0436497  34.3733788  91.0865974
 111.4933300  26.2955785  89.1106319 112.3860168  26.0111690  89.3067360
 111.4216042  26.2204623  88.1590843  10.9664607   8.3434862  59.3106270
  10.6814921   7.5156862  58.9236212  11.8146467   8.5189450  58.9031601
  55.3356361 105.1440620   9.0847862  55.2188730 105.5769920   9.9304652
  55.4080391 105.8621788   8.4560615  97.5179958  36.6972923  80.6108761
  98.1840324  36.9188857  81.2616730  98.0017090  36.2520218  79.9151850
  34.4469190  89.6743011  43.7739038  35.0863004  89.3719006  43.1289434
  34.9252582  90.3109074  44.3050861 101.8179026  30.4960398  92.6562260
 101.1077276  30.0038103  93.0680474 102.6094690  30.0061087  92.8789804
 107.4555588  96.6460800  14.3175220 106.6963673  96.4459038  13.7699878
 108.2001305  96.2865067  13.8352942  65.8324528  82.8719902  19.7248244
  66.2057209  82.6097584  18.8833165  65.7604980  83.8248158  19.6684229
  19.7018600  80.1463509  10.5358887  19.8396790  80.0818157   9.5908630
  18.7573862  80.2683449  10.6324184  42.2588444  39.7741961  83.7821579
  41.8063354  39.8729610  84.6198463  41.7254066  39.1467738  83.2942963
  22.6559639  11.6478097  79.9665165  23.2005882  11.1777258  79.3351364
  22.2671127  10.9597385  80.5065060  98.7864780 102.1045685  35.9881997
  99.2095661 101.5311241  35.3491426  99.4648075 102.2772408  36.6411018
  72.4734688  57.3034382   0.2681838  72.4393082  57.7610111   1.1082384
  73.1028366  56.5956163   0.4064116  50.5903292  50.8407402  18.9681542
  50.9950066  50.0538445  19.3332136  49.7117615  50.8563805  19.3477654
  34.0397930  78.5413122  28.1596041  34.5151067  77.8102112  28.5543156
  34.1869354  78.4427071  27.2189355  17.0772648   7.0286834  88.9797783
  17.7588975   7.4008644  89.5393181  16.9170392   6.1582059  89.3442345
 105.2207756  41.1535406  75.6995678 105.8125782  40.6908178  76.2927675
 104.3546772  41.0448647  76.0923767  79.0140200  10.5350864  22.4797893
  79.9189281  10.8204532  22.3535347  79.0680361   9.8594320  23.1556630
  22.1110439  22.8446078  79.2619658  21.3643312  22.5874972  79.8028374
  22.5725508  22.0247841  79.0855217  52.1834421  95.6406403  10.6387460
  52.7588797  94.8868179  10.7685828  51.3187981  95.3312397  10.9087467
  32.3630452  63.0941629   3.4461212  32.6836562  63.5943556   2.6956216
  32.8681564  62.2813463   3.4256527 101.5388584  24.3689752   9.5862466
 100.6077957  24.1629386   9.6693814 101.7188740  24.2902017   8.6494333
  84.5173645   5.3654462  15.2679324  83.7193775   5.4263949  15.7930279
  85.2287197   5.4189157  15.9061706 113.6393738  33.4444761  88.7091827
 113.9833736  33.6140990  89.5861816 112.9978275  32.7452564  88.8346481
  66.8032408  91.3686275  34.1185021  66.0937786  90.9044647  34.5628452
  67.5038052  90.7206154  34.0441871  72.0620632  10.6081176  29.6887469
  71.1441803  10.8328056  29.8411846  72.5469780  11.3904405  29.9515343
   5.7638180  32.3002267  66.8234444   4.9504626  32.0880818  67.2813511
   6.0081798  33.1635857  67.1568060 106.3765430  20.6732440  33.9595413
 106.3697147  21.5799737  34.2661762 106.6665649  20.1661539  34.7178173
  49.8837566  98.9066696  10.7284212  49.7795248  98.6503983   9.8120713
  48.9933872  99.0887260  11.0289705  62.1194553  93.8902187   7.1712464
  62.1288347  94.2569256   6.2871271  62.7982044  93.2154179   7.1578634
   8.4480006   2.3225202  22.1934748   7.8332990   3.0140835  21.9482946
   8.1873339   1.5706958  21.6614556  27.6578069  56.7111397  85.3350258
  27.4770975  55.7819796  85.1927662  27.1450019  57.1604729  84.6631908
  17.6348388  36.0529518  82.6098156  17.2718287  36.4403415  81.8133354
  16.8685126  35.7782197  83.1132984  91.4190292  24.0463901  65.1428604
  91.9547367  23.2937169  65.3933334  90.5518723  23.6777449  64.9744034
  28.6062503  74.9366808   5.2660871  27.9052854  74.8476887   4.6203628
  28.8585734  74.0364265   5.4712927  16.1427784  40.8176804  86.4948940
  16.6887116  41.3675404  85.9328938  16.5739882  40.8455753  87.3490047
  49.1030407  11.4079690  15.2473629  48.5357571  11.4963317  16.0132670
  49.3841457  10.4930902  15.2617860  35.1439071  23.9764333  58.2453156
  35.4745173  23.0792928  58.2908154  35.9060574  24.5003295  57.9985571
 105.5961609  42.9012918  64.9404621 106.2667465  43.1054688  65.5922699
 105.5939674  43.6577940  64.3540096 102.1079445   3.6831090   7.5262815
 103.0014992   3.5285759   7.8327358 102.0413589   4.6351266   7.4523866
  27.0877600  86.3044453  57.4136639  27.9895210  86.2660885  57.7323914
  27.1459866  86.0345650  56.4971447  34.4400096  53.3215523  87.6073742
  34.1962194  54.2289782  87.7900791  33.6094832  52.8829336  87.4227905
  79.9671698  78.0032444   9.8692638  80.0475216  78.9527750   9.7788900
  80.7546997  77.6553392   9.4509447  14.7978830   0.9121284  91.3840389
  14.8055565   0.1774623  91.9975853  13.8797784   1.0009989  91.1282730
  48.1387043  93.1431961  22.1497226  47.3875332  93.6402225  21.8257618
  47.9777861  93.0508041  23.0887651  38.4945560  39.6123338  82.1457577
  38.0081415  40.4116249  81.9438457  37.9246378  38.9033890  81.8477249
  42.7158070  42.7791214  87.2348595  43.5597658  43.1818914  87.0305634
  42.8590298  42.3332453  88.0696774  12.7813315   3.7508655  76.5026522
  12.3464084   4.6035248  76.5094137  13.7141156   3.9582255  76.4465618
 102.4435139  10.5318117  46.2433147 103.2793903  10.5030870  45.7777834
 101.8208408  10.8650649  45.5972052  22.5176048  35.0774646  47.0789814
  23.2248473  35.3495765  47.6637888  22.7998662  35.3663611  46.2111712
  67.4687815  72.7633095  21.3376546  67.4060202  72.4170017  22.2278047
  67.1884108  72.0387840  20.7784653  36.7091584  74.4578266   8.8338792
  36.9061637  75.0790262   8.1327879  36.0628557  73.8635111   8.4526807
  30.0965047  71.6444302   3.0304891  29.6058512  71.2776804   2.2949705
  30.8890057  72.0056677   2.6334006 101.8221092  15.9296942  90.5030632
 101.8495655  15.1407349  89.9617481 101.2112045  15.7152951  91.2080860
  64.2113781  89.7771358  33.3093357  64.7315741  90.3706264  32.7676702
  63.3693886  90.2210712  33.4103847   1.3582896  47.6165771  76.4523458
   1.4897037  48.1485176  77.2372007   2.2151169  47.2253895  76.2819052
 110.6037617  80.1365757  42.8185081 110.5476093  80.8223152  43.4839725
 109.7815609  80.2057934  42.3332977   2.6589078  48.8014603  49.0351105
   3.3394635  48.3662748  48.5216045   3.1103343  49.1047859  49.8227882
   4.3897682  28.3006454  73.6090517   4.1039577  27.5099969  73.1514311
   5.1567113  28.0233240  74.1101742  11.1485255  66.7965508   7.3199588
  10.6687438  66.8609858   6.4941925  10.4673350  66.7061186   7.9863173
  17.7134967  48.7020826  70.0201035  17.2397935  48.1429148  69.4043350
  18.2451725  49.2727327  69.4652081  58.5457659  59.8887253  10.3684449
  57.9049063  59.9659204   9.6616429  58.5276508  60.7417154  10.8023953
 113.2119560  19.4054461  15.9317791 112.9608536  18.5115111  16.1642897
 113.2143974  19.8777652  16.7643285  39.0840077  89.2337036  20.5837297
  39.9791861  88.8975716  20.6273270  38.8620114  89.4422436  21.4911771
  94.1277885  40.2771950  90.6589699  93.6601353  39.5056295  90.9786987
  93.6718941  41.0169792  91.0603619   7.5154692  55.7052898  80.2500248
   7.4029440  56.4702511  79.6857452   8.4240240  55.7580328  80.5466366
  96.3078594  37.3411393  18.5698307  95.5616760  36.7566991  18.7035334
  96.8841743  36.8614841  17.9748344  96.5615082  40.5763340  92.8213501
  97.4970150  40.4505920  92.9802608  96.2942982  39.7965860  92.3347187
  35.0520325  99.0613651   4.7334099  35.9983540  98.9788437   4.8512852
  34.8588586  99.9675465   4.9737108  35.7721829  47.2855377  90.6040382
  35.4779649  47.9954290  90.0333118  34.9675226  46.9392633  90.9898472
  73.4515810  15.7081974  10.2647066  74.1848946  16.1829603  10.6559670
  73.0101681  15.2953887  11.0069823   0.3589303  52.2719908  69.1333675
   0.0787481  53.1211233  69.4749880   0.1980502  51.6599798  69.8515558
  92.1056938  15.6366539  20.3908420  91.1846828  15.8970547  20.4029942
  92.3689079  15.6442499  21.3111115   8.9842737 100.9488392  31.9829273
   8.4873825 101.7608643  31.8832040   9.8929727 101.2342358  32.0780444
  95.0363541   1.6872457   3.2481337  94.9751568   0.7321382   3.2641429
  95.2991676   1.8954149   2.3515692  94.7032356   3.6378103  20.1826811
  94.5994663   2.8354156  20.6941772  93.9247608   4.1553697  20.3884459
  57.8953648  92.1354485  31.4656234  57.7308702  91.4448357  32.1076751
  57.1727800  92.7515507  31.5861273  39.9202609  33.6947083  57.6925468
  38.9930773  33.4624529  57.7436972  40.2793407  33.4351993  58.5410452
  78.4933615  82.0451450   7.2416621  78.6971378  82.4220085   6.3856924
  78.0051470  81.2464714   7.0416409  39.6632862  55.2579498  22.6976991
  39.1728330  54.9389267  23.4552693  40.5655432  55.3293467  23.0092597
  89.4524193  44.3391800  84.4505596  90.0227547  45.1037836  84.5301247
  89.8281193  43.6964798  85.0522327  20.3641701  39.0131807  69.0128136
  20.0741601  38.5422254  68.2315826  19.9001801  38.5886645  69.7344303
  75.6559753  94.4739342  24.8657703  75.1700783  93.9610481  24.2199445
  75.8913898  95.2788830  24.4043922  22.6134109  68.7203836  82.0706844
  23.1731939  68.5624123  82.8308964  23.0840373  68.3203506  81.3394451
  50.1586485  95.8345127   6.3022393  49.4439268  95.4430580   6.8044013
  50.5075932  95.1125431   5.7795316  97.9794884 106.5979767  75.3351212
  97.1982002 106.4466286  75.8670187  97.9453468 107.5298595  75.1190996
  60.9313217 107.5871694  26.4426589  60.6228748 106.9898342  25.7612777
  61.8439689 107.3364911  26.5857410 105.1807404  67.2692728  88.5141945
 105.0710678  66.6804504  89.2608452 104.3515396  67.2112274  88.0395603
  14.3339336  51.8282413  81.6299915  13.9073873  52.5836992  82.0344257
  14.2556703  51.9844151  80.6888580  15.7612610  57.3746061  90.3466129
  15.4173887  57.6843548  91.1844826  15.6018221  58.0978346  89.7401905
 106.6327572  15.8128500   9.6532434 105.7406139  15.8450842   9.9985933
 107.1022320  15.2362084  10.2559996  77.3646498  85.8164787   1.0972454
  77.6314402  86.4012909   1.8065053  76.8481684  85.1361465   1.5292443
  64.3896818  84.4266701  64.3284321  63.4965611  84.3332958  64.6598625
  64.3411684  85.1571655  63.7117767  62.2924852  87.3503017   6.9114596
  61.4236593  86.9533730   6.9732368  62.1232986  88.2914162   6.8677205
   2.4626909  55.3633881   2.8517756   1.8652353  55.7072783   2.1876845
   1.9006485  55.1683235   3.6016360  60.9637976  88.9253330   3.7048742
  60.9262228  89.5114994   4.4606748  60.1646709  88.4021759   3.7675440
  13.5015750  56.3499117  88.6520481  14.3669510  55.9690523  88.5027027
  13.6169744  57.2834969  88.4750462  20.6178498  58.0849171  59.2527580
  21.4167500  58.2163382  58.7421513  20.0402117  58.7983894  58.9816141
 112.0140362  27.7328420  82.1937847 112.7801609  28.0465174  81.7132664
 112.1126938  28.1040955  83.0705261  46.5944576  56.5911722  78.0828810
  46.1757374  56.0581636  77.4070072  45.8789921  56.8429184  78.6668015
   9.1368234  35.8125091  75.2179050   9.2340416  35.5935407  74.2911720
  10.0343871  35.8780313  75.5439663  55.3185797  41.8731356  90.1476097
  54.9701166  41.4555454  90.9352875  55.0850821  41.2761497  89.4367599
  69.5727253  87.8910065  10.9990883  70.4997396  87.9322338  11.2339747
  69.5549679  88.0774403  10.0603890  93.6411858  13.0586147  13.7923896
  94.0550804  12.9211497  14.6444607  92.8715992  13.5947049  13.9836431
  80.6310368  96.7467880  23.1002045  80.9775066  96.3643456  22.2940207
  80.0082302  96.0966682  23.4253216 109.7577477  37.4522948  79.8893166
 110.5032349  36.8604493  79.7883368 108.9963436  36.8736410  79.9301052
  25.4776597  46.3350439  73.2477665  24.7432661  46.6204166  72.7042007
  25.3767848  45.3850269  73.3070707 113.1883812  48.8485670  80.1552296
 112.7512360  48.5332203  79.3642235 112.7391338  48.4005594  80.8719444
   3.7931487  37.3751140  83.1407356   3.8425726  38.0787277  83.7878227
   4.2482755  36.6398406  83.5511780 111.6335201  35.4662323  78.8911009
 111.8343353  34.5804930  78.5888290 111.1546135  35.8645225  78.1642962
  71.1248064  11.0913265  40.7184362  70.5766106  11.6124117  40.1317644
  71.6287136  11.7379022  41.2126493  48.4252644  28.0422497  91.8493748
  48.9827776  28.7864327  91.6222191  47.9298115  28.3384299  92.6129532
  20.6207418  64.3149376  82.5254440  20.1929188  63.5092926  82.2353840
  20.0042605  65.0099134  82.2948074 101.8380260   6.8935496  10.2388346
 101.3055897   7.4834847  10.7724237 102.1907043   6.2589771  10.8626711
  95.6428432  33.9914513   4.8363054  94.8373413  34.4897485   4.6981454
  95.9766960  34.3041706   5.6771278  71.2346601  75.5594158  31.4654112
  71.0299444  76.0668898  30.6800485  71.0682487  76.1621380  32.1901631
  61.2494707  90.2650356   6.1792207  62.0456839  90.7086563   5.8868533
  60.8337736  90.8875275   6.7758250  11.9309604  69.1104841  53.1934834
  11.1150622  69.0130663  52.7025127  12.6194739  68.9513826  52.5478268
  88.6237240  88.8353443   6.5030551  88.0068207  88.4654999   7.1346194
  89.4477654  88.9040756   6.9852078  55.2629185  34.7802234  87.9729652
  55.4090405  34.8600698  88.9155674  54.8333502  33.9312625  87.8682518
  12.2821605  51.0835648  84.6263027  13.1121504  50.6125164  84.5524120
  11.8134844  50.8710575  83.8191986  96.2312508  17.6280797  23.7028694
  95.3767204  17.4123800  23.3293915  96.0437870  18.3016241  24.3566465
   1.5098742  45.8103037  63.8000965   0.8887766  45.2638388  64.2816019
   2.3676158  45.4427958  64.0132856  18.5588062 103.7836742  16.1314368
  17.9557681 104.2343998  15.5403173  18.5167003 104.2859268  16.9451964
  22.9462028  36.1883020  72.9475546  23.5804176  35.6638455  72.4587345
  22.5380445  35.5684423  73.5520506  86.5975571 100.2457047   3.4518674
  87.3701668 100.6561565   3.8402453  85.9704018 100.1857758   4.1725057
   5.1394576  39.7314334  51.3812780   5.0368685  40.1232243  50.5139780
   5.1447183  38.7881255  51.2188673   2.7724773  42.6164246  91.0177326
   2.2673590  41.8550301  91.3029766   2.9395491  43.1079721  91.8219090
  52.3824406  98.3596230  11.6568196  51.5180111  98.6745930  11.3926423
  52.4072552  97.4502087  11.3591945  30.1292396  57.4504423  77.7771235
  29.7654891  58.3354807  77.7521801  31.0219383  57.5674582  78.1021261
  31.9800758  80.2475452  13.3841789  32.7810359  79.7379923  13.2614899
  31.3523769  79.8572302  12.7760005  39.1643262  60.3579712  92.3453808
  39.7564983  59.9083710  92.9482269  38.6109090  60.8969021  92.9106331
 113.4938526   2.6034066  74.8439932 113.5396862   1.8009061  75.3637266
 113.2573128   2.3064917  73.9652872  31.9629478  83.1052208  13.9068091
  31.7220950  83.5776997  13.1099522  31.7119527  82.1981049  13.7325239
 103.8041019  11.6370773   1.6669962 103.7667561  11.2904727   2.5584573
 102.9893017  11.3415706   1.2607870 100.2071953 104.2292118  76.8607712
  99.9958706 105.1292610  77.1087551 100.5136204 103.8230515  77.6715517
   0.4809389  18.5341203  73.7622261   1.0416470  19.1019046  73.2335901
  -0.2017963  19.1158056  74.0965128  95.1272297  49.6497202  12.2331190
  94.9413872  48.8448477  11.7495179  94.5338535  50.2987242  11.8550587
  17.0678699  23.3918095   6.2960577  17.0088279  24.1888881   6.8227583
  17.8171384  22.9196787   6.6592669  99.3131542  38.1368232  87.0967674
  99.9161530  38.5051560  86.4510345  98.6809158  38.8365865  87.2605610
  78.4739494  78.6494064  29.0860820  78.8847017  78.2604313  29.8582292
  77.9700804  79.3874741  29.4290137  66.0047436  88.5461903   1.4000441
  65.1839542  88.8667011   1.7739561  66.1998796  89.1583443   0.6905229
  21.8543291  54.7249031  62.4840498  21.8183327  55.1725483  61.6387367
  21.3279176  55.2717113  63.0672503  28.1422758  71.3917875  74.0770197
  29.0875363  71.2725735  73.9847994  27.9269528  72.0878172  73.4562063
 107.7981377  59.8201942  86.0052490 108.6881256  59.5322561  86.2083435
 107.2657204  59.4768906  86.7228127  35.2042723  95.3067017  12.7658188
  35.0974417  96.2265778  13.0079639  35.1145744  95.2978992  11.8128717
  16.0776103  63.0546427  88.3115673  15.7062721  63.5951328  89.0088558
  16.9218147  62.7646208  88.6571693  25.6742692  74.5371294  10.0425589
  25.5658722  74.6142721   9.0946496  26.4608574  75.0471306  10.2359748
  80.5424786   3.7982926  25.4860783  80.9477806   3.5291979  26.3104272
  79.6085596   3.6308342  25.6124759 104.3560791  32.0777941  89.8087692
 104.2477512  31.1721182  90.0990295 105.1166534  32.0538688  89.2281055
  21.6850877  41.7737055  81.6277695  22.2172427  41.1440277  81.1414051
  22.1801925  42.5916338  81.5819263  97.8983593  23.6084127  18.6357212
  97.9499054  22.8720546  19.2451084  97.6310444  23.2140040  17.8055322
   1.8240421  10.8827209  12.8455830   0.9301712  10.7176435  13.1455433
   1.7508148  11.6588879  12.2902131  38.8039231  85.3782845   7.8471690
  38.4956074  85.1350880   6.9742268  38.7912536  84.5592785   8.3424449
  10.4959738  39.1015697  80.6411743  10.4017508  39.0977478  79.6886349
   9.8793715  39.7698760  80.9401703  47.9532766  59.9478769   7.4042153
  47.0876789  60.1078796   7.0282155  47.9506016  59.0161610   7.6236129
  69.1887522 102.2638226  32.7982783  68.4288454 102.8458309  32.7928662
  69.3864346 102.1194077  31.8729138  32.8278589 104.6947384   4.6315035
  32.3548126 105.3586578   5.1331633  32.2842407 104.5468044   3.8576630
 112.1947002  40.3356743  80.6712055 112.7744865  39.5891690  80.5201721
 112.4810028  40.9933758  80.0374126  20.8763099  61.5239286  76.3844681
  21.2407398  60.8893061  77.0014620  21.1179638  62.3762798  76.7468643
 109.2676830   6.3182122  14.3058288 109.7424984   5.7646036  14.9257481
 109.2474937   5.8082408  13.4960425  95.1600170  18.3546567  11.1315989
  94.8604488  17.4820173  10.8766675  95.4077816  18.2635343  12.0516777
  49.7293091   3.6581212  20.2636361  49.6315861   2.8836578  20.8176136
  49.1942692   4.3271363  20.6906986  78.0814362   5.0173134   7.3434901
  77.8426838   4.2309833   6.8526602  77.5731802   5.7181138   6.9350952
  93.3951759 102.4610519  16.3311994  92.6892471 102.4659920  15.6847644
  93.2204151 101.6900063  16.8708098   2.9824296  43.5586596  85.2911854
   2.7013344  44.0332031  86.0735035   3.7184763  43.0231953  85.5874062
  43.0000830  59.0288353  86.3809776  42.0806074  58.8458920  86.1877728
  43.1566811  59.8941803  86.0029793  45.5962992  31.1913371  73.8912010
  46.0865259  30.4554224  74.2577314  45.2448273  31.6490865  74.6548510
   0.5552573  43.2077265   9.0216047   0.5149709  43.4202051   9.9540532
   1.3233484  42.6427269   8.9376682  82.4611950  84.0314388   3.4959075
  82.5825119  84.2501163   4.4198626  83.3273125  83.7507534   3.2004800
  28.1832719  82.5951672  92.0929241  28.2082629  83.3971119  91.5709209
  29.0938139  82.3017025  92.1248627  35.9561801  61.3857794   6.3384956
  36.6481614  61.9640875   6.0176361  35.5278134  61.8869352   7.0324534
  98.3304119  28.7750149  81.3321781  97.6326084  28.3108854  81.7946529
  98.3799076  28.3442426  80.4788208  93.5927105  26.4245248  14.4566739
  93.6607552  27.2672367  14.9054968  94.4363022  26.3185573  14.0169466
   8.2918257  66.2669277  80.1174736   8.2911319  67.1646023  79.7851849
   9.0490347  66.2283993  80.7017517  74.6616364  12.0125008   2.3229070
  75.5763531  12.2941005   2.3381217  74.6729994  11.1877012   1.8373053
  56.3085461  93.3217239  39.7461772  55.8560896  93.2143307  40.5828285
  57.1753407  92.9428387  39.8922801  44.9293566  17.1714866  23.6489487
  44.3840694  17.7948678  23.1690598  45.7429266  17.6462686  23.8189960
  45.7342196  20.9516120  85.6079197  45.6164074  21.0740328  86.5499210
  44.8690081  20.6938124  85.2898407  73.1693172  94.6358871   0.2719865
  73.9077377  94.0333843   0.3611876  73.3508348  95.1195621  -0.5338276
 107.2154713   7.5059658  16.9677055 107.4605560   6.9944906  17.7387810
 107.9283237   7.3586953  16.3461077 102.1188641  70.9976816  49.3570375
 102.9478645  71.4128304  49.5949984 102.3221016  70.4898500  48.5715246
 107.2197819   3.3897042  15.3001666 108.0576324   2.9799154  15.0849700
 107.3622704   3.7900805  16.1578548  36.8449903  29.4705892  91.9955635
  36.2522912  30.0198555  92.5086403  36.5035009  28.5830259  92.1044159
  55.5640221  88.7976265   5.7625467  54.7171640  88.7801743   5.3167242
  55.8266163  89.7178650   5.7419640  65.7200670  92.6465988  18.9865267
  65.9800386  92.6705647  19.9074352  66.3588428  92.0663834  18.5723495
   2.2391622  55.1186419  78.2519865   2.1376704  54.2382956  78.6138201
   3.1716684  55.3115320  78.3492422  56.9458532 106.9320393  43.7941265
  56.2200069 106.8808937  44.4160271  56.5397310 107.2146606  42.9747200
  87.5373363  12.6212180  15.3955472  86.7332363  12.3848867  15.8579314
  87.3161507  13.4255946  14.9262011  98.0243015  63.5753775   4.9472907
  98.2981205  63.5206604   4.0317258  97.4420452  64.3344975   4.9781907
  20.9101915  51.7468548  74.8766708  19.9942851  51.8932390  74.6401978
  20.8701658  51.2608099  75.7003164  92.2723866  30.0060272   1.6185239
  91.8649197  30.6660748   1.0576829  93.1239605  30.3785992   1.8470921
  54.8782873  87.1938992  31.8775439  54.8943567  87.2862530  30.9249473
  55.1159954  88.0608845  32.2062778  59.4049549 100.3732872  11.2494516
  58.7408447 100.2132702  11.9199586  59.2281961 101.2633514  10.9448779
  10.8473134  17.3490727  15.6840730  10.0189686  17.3317492  16.1634254
  10.6315148  16.9978166  14.8201978  52.4843645  11.7253375  20.6935620
  51.8603611  11.8012094  19.9716938  52.1109056  12.2646093  21.3906622
  85.9322929  65.6675196  87.2196388  86.7039204  66.0067272  87.6732349
  85.7567120  64.8265648  87.6417732  38.3228183  33.9191961  89.4832897
  38.0731177  33.3215117  88.7785530  38.0316806  33.4813166  90.2831268
  96.5872860   7.8198969  15.4525340  96.0197067   7.3705602  14.8262930
  96.0766125   8.5775554  15.7378352 108.7158298  24.0866780  35.7623267
 109.6724510  24.1075206  35.7882380 108.4584045  25.0049138  35.6798148
  24.3513322  42.3480654  75.2698421  24.6651649  42.1567249  76.1536598
  23.6618519  42.9998589  75.3963852  61.3898849 105.6054020  29.0924621
  61.9817638 105.8038330  28.3668327  60.5535746 105.4059410  28.6717081
  67.6727057  78.3558559  29.4387698  68.2671070  78.7607765  30.0703979
  67.6838589  77.4251127  29.6619844 107.3453617  37.2425056  84.7700214
 107.5487900  36.6704082  84.0300560 108.0418110  37.8991199  84.7636604
  15.1552439  46.9133759  72.8052235  14.7134280  47.5467634  72.2396708
  15.1768863  46.1067533  72.2903204  87.2924423  31.9948363  17.5981355
  87.0179653  32.7396202  17.0631707  87.4141312  32.3610520  18.4740996
  23.6094642  72.3510122  48.4220505  23.5158467  72.3177576  47.4700165
  24.5283556  72.1344519  48.5800695  71.2985039  79.9525976   2.2768655
  71.3029480  79.2270851   2.9012445  70.4542923  79.8801899   1.8315612
  10.4147184  43.0708504  75.6076574   9.5282513  43.4158278  75.5009031
  10.3384745  42.4287844  76.3134670  89.7340202  46.1017656  24.4619942
  89.3035889  45.6238985  23.7530470  89.0341187  46.2800217  25.0901628
  97.5574017  19.7627866  10.6536818  96.6283798  19.5572281  10.7580495
  97.8707504  19.9146032  11.5453064  30.4968786  70.4640198  56.5305042
  30.0878620  69.6018362  56.6051817  31.4290309  70.2779579  56.4177895
  59.5210695  20.6655145  84.2806721  59.8271227  20.1263976  83.5513496
  58.6864662  20.2721810  84.5355415  35.3596306  45.7537508  72.6099825
  35.5195999  46.4767504  73.2165384  36.0530782  45.8327913  71.9549131
  24.0093923  21.6706824  10.3147674  23.9377260  21.3483548   9.4163245
  23.2701373  21.2704229  10.7725084  55.8188868  93.6512947  31.9513869
  54.9096537  93.4390068  32.1622396  55.9219170  94.5625114  32.2257876
  71.8817902   0.6673826   4.8326498  71.2847519   0.3954383   4.1356367
  72.1583366   1.5485081   4.5809120  76.8513536  16.4436936  28.7738729
  77.1531296  16.2319231  27.8905177  77.6488972  16.4554906  29.3030405
  64.1066265  74.4816160  15.8808315  63.4669304  74.3392229  15.1831603
  64.1344261  73.6498451  16.3537133  92.0750999  70.9332037  78.9396667
  91.1519527  71.1719608  78.8558292  92.5459576  71.7616034  78.8486719
  98.8794613   7.7267939   8.7984782  98.1571960   8.3497792   8.7180763
  99.6239758   8.2583159   9.0802747  14.2522478  35.0958729  77.6074791
  13.5061836  35.2882767  77.0395041  14.1505349  34.1707945  77.8313541
  93.3456421  82.0704651   6.5156913  93.7326908  82.0858288   7.3910153
  94.0432167  81.7373753   5.9511739  33.7992382  40.2914143  90.4737186
  34.4704914  40.9461832  90.6658936  33.0278492  40.5908680  90.9548855
  17.0524299  46.3345718  92.9344654  17.0181727  45.7623386  92.1679115
  16.4807260  45.9113789  93.5750103   3.6411667  18.7444007   8.2963449
   3.6898318  19.5725799   8.7738192   4.5542854  18.5072494   8.1344652
  83.8079453  12.4557650   4.7624117  83.8217640  12.9314268   3.9318776
  82.8827953  12.4264610   5.0062788  53.2510233 102.3447037  12.5541115
  53.2527447 102.0121288  11.6565454  54.0820885 102.8121853  12.6379180
  68.4350157  85.1939583  19.1952145  68.1681156  84.8348713  18.3490169
  67.6135778  85.4383850  19.6215117 107.1518040   1.7045574  23.3468533
 107.5986385   1.8463252  22.5123048 107.6872349   1.0513717  23.7972903
  52.4938393   8.4928650  22.1429276  51.9022179   8.0599499  21.5274596
  51.9141388   8.9658701  22.7399564  82.2604275  98.7033653  52.5256252
  81.7693806  99.4769669  52.2487974  82.1195221  98.0667877  51.8248034
  18.7492657  92.2173691  10.2499950  18.0522907  92.1737671   9.5953524
  18.3048522  92.4808025  11.0558069  42.4449253  75.2399635  10.6150699
  41.5114737  75.4220295  10.7234704  42.8793287  76.0513687  10.8780229
  64.1444492  31.6688704  24.0559316  63.7636042  32.2841763  23.4293652
  64.6226215  32.2216392  24.6740174  63.4378290  88.7500286   2.6620075
  63.4826565  87.9878998   3.2394001  62.5141478  89.0010357   2.6679891
 113.4583569  43.8605928  91.2529755 113.9845181  43.2427120  91.7605209
 112.5654697  43.7352562  91.5743256  13.8839090   4.6178237  28.9331627
  14.4283879   4.8516798  29.6848845  13.7631834   5.4408550  28.4595847
  28.4352016  49.1970730  68.2976437  28.7719011  48.3025074  68.3488750
  28.7482643  49.5228577  67.4537897  40.5382776   7.1337026  10.7306647
  41.2182093   7.1010917  11.4036155  40.6273174   8.0039859  10.3421938
  44.1033125 101.1538315  17.8228390  44.1156483 100.9825993  16.8811607
  44.1632986 100.2871418  18.2246816   7.9816604  42.0679235  85.5816460
   7.1805573  42.5836134  85.6739998   7.8618950  41.3302040  86.1796951
  27.6855874  45.4917669  58.1435919  27.9026890  46.1378765  58.8156319
  28.1008697  44.6837711  58.4451151 106.8930435  12.0946014  16.2641764
 107.3505020  11.7062473  15.5184245 106.5376091  11.3460839  16.7433584
  49.3739843  25.7168007  92.2869301  49.6566343  25.7453036  93.2009983
  49.1126871  26.6160941  92.0888710  35.6159759  66.7376852  27.3613763
  35.3425336  67.2264576  26.5851283  36.2861609  67.2877407  27.7669930
  22.8019094  27.3333025  79.8383856  23.1713533  28.0355692  80.3736973
  23.2465434  27.4159980  78.9947653  20.2410531  61.6772509  49.1700315
  20.7758331  61.1305189  49.7456455  20.8426070  62.3507261  48.8525438
  76.7686224   0.3218509  30.1574087  75.8966494  -0.0729568  30.1625133
  77.2901773  -0.2419800  30.7286406  81.6772842  80.0415039   2.0511243
  81.4006710  80.8597946   1.6386817  82.5906944  79.9359989   1.7850688
   1.6351511   2.9802835   2.5804701   1.0345207   3.1936234   3.2945859
   1.2415357   3.3849648   1.8074682  37.6867986  34.7342706  82.7782249
  38.1819630  34.9041629  81.9768620  38.3532643  34.6680593  83.4620857
  83.8590527  56.3304281  78.5123158  83.5520077  55.4324341  78.3875704
  84.6277142  56.4015341  77.9463339  28.4344792  16.7066693  34.7423387
  28.8275409  17.0151293  33.9258909  29.0031815  17.0555043  35.4287219
  22.5401020  96.2513256   2.6436403  23.3935881  96.5977097   2.3832294
  22.6436567  95.3007889   2.5990811   7.2071558  35.1624227  86.1064529
   7.4612790  35.8137488  86.7602348   8.0351311  34.7830248  85.8119297
  62.6194859  85.6506252   1.7827035  62.6741266  85.8090115   2.7251256
  62.9833603  86.4417934   1.3853709   3.4838176  57.3255301  81.2876701
   3.3949488  57.3347330  80.3346443   4.4249624  57.4085045  81.4412689
  24.0426469  62.3582458  63.1775856  23.2956505  61.7876148  63.3581591
  24.4836617  62.4499655  64.0221691  92.7778149  81.0135078  50.9488153
  93.0453682  81.6095543  51.6483736  91.8297386  80.9324455  51.0527658
  70.3755569  54.8224068  18.6014700  69.7670555  55.5611849  18.5885787
  71.1148930  55.1301908  19.1257596  67.3631430 104.9359131   3.2308224
  67.3886013 105.5505466   3.9641744  67.3397970 104.0722561   3.6428636
  20.8211231  54.8203325  90.4160118  20.1188445  55.1410532  89.8501682
  20.8928204  53.8895273  90.2046108  64.3978071  99.2101097  23.0907679
  64.6599865  98.7929440  22.2701144  65.0651312  98.9389610  23.7211561
   8.1303471  67.4548864  90.7855415   8.8957649  67.9204941  91.1225510
   8.4559786  66.9811726  90.0201702  55.0800419  97.8520870  20.9057570
  55.8978271  97.4150181  20.6682158  54.5970678  97.9205513  20.0821757
  47.6890659  81.6157532  20.0410104  48.1244135  82.3868561  20.4044652
  46.7571974  81.8331814  20.0651312  12.5179183  32.1348929  89.4303989
  12.9092550  31.5710497  88.7631989  12.9242885  32.9900503  89.2896843
  67.0314360  79.4810057  21.9968534  67.6807213  79.1597795  22.6225281
  66.1880398  79.2802000  22.4025583  70.8735371   4.9543980   1.1777341
  71.5510798   4.4403282   0.7385272  71.3547945   5.6439722   1.6350201
  40.6227827  75.0806332  16.1017072  39.9923611  74.6568537  15.5192888
  40.3835297  74.7750187  16.9766867  19.7232640  57.6334620  71.2242413
  19.5659781  58.4363079  71.7211628  19.0350521  57.0342207  71.5132093
 106.6283894   5.8565950   9.8260069 105.7076454   5.8179659   9.5672005
 106.6814709   6.6130835  10.4100776  29.3540645  42.9392958  89.5296383
  29.2705369  43.8465977  89.2362881  28.4701705  42.6935196  89.8026943
  48.4664297  39.9925923  81.7318630  47.7750301  40.5263996  82.1233273
  48.9909267  40.6133509  81.2261009 103.4241390  16.4897013   1.9053817
 102.7782536  16.2263727   1.2498546 103.4208298  15.7772148   2.5445884
   9.1785038  29.5695400  22.4534369   9.3396991  29.1141486  23.2797933
   9.5465702  28.9911318  21.7854524  74.6361542  36.4861250  29.6380877
  74.5231199  37.0676327  28.8862205  75.5767488  36.3108158  29.6660137
  37.9902768 104.2400646  91.5447617  38.1798959 103.4498978  91.0388756
  37.0425320 104.3510628  91.4693356  59.4866991  74.3321371  85.5369473
  59.0559292  73.8109303  86.2144470  59.1922808  75.2281046  85.7006359
 112.8596306  18.3346987  31.0052276 112.5445652  17.4317825  31.0465384
 112.1418858  18.8555455  31.3654900  63.7605858  14.3583882  91.7335796
  64.0985441  14.4873083  92.6198101  62.8508949  14.0891910  91.8609524
  25.9298158  81.4055252  81.3998127  26.0247397  82.2419930  80.9442520
  25.4585266  80.8478355  80.7808590 111.7648697   7.3213178   6.0307026
 111.9474030   6.4106393   5.7992274 112.0368290   7.3950541   6.9454885
 113.3620739  24.1571617  11.3706708 113.6868000  23.2634211  11.2610650
 113.4073067  24.3144560  12.3137748 101.4764500  14.8017859   0.8519232
 101.2641144  14.4061387   1.6972682 101.8014908  14.0740967   0.3217807
  90.0641823  15.9853458   5.4858732  89.2807198  15.5822062   5.1118630
  90.6706142  16.0591424   4.7489688  30.5383110  45.2561617  88.2351780
  31.0666943  46.0532093  88.1932735  30.2423334  45.1174355  87.3355198
 112.2823429  14.2483413   7.2636431 111.6283512  14.5481110   7.8950417
 111.8851185  14.4166911   6.4091808 104.8615646  31.2610555   2.7473894
 105.6317997  31.5490961   2.2574861 104.5965290  30.4466820   2.3198564
   6.4933401   4.2427441  35.3905296   5.6769466   3.7707061  35.5545831
   6.3172501   4.7597870  34.6044683  37.5692391  68.6420107  88.4188461
  38.4595942  68.6246729  88.7698364  37.2679496  69.5371866  88.5741425
  48.8011122  53.0052328  89.1738892  48.0131960  52.5566578  89.4808102
  48.7670803  53.8641787  89.5949364  35.7963872  43.5736036  87.9025078
  36.2515998  43.3524084  87.0900440  34.8921061  43.7358761  87.6338482
  99.6357346  28.7768674   9.2871958  99.5599651  28.1205344   8.5945815
 100.2749634  29.4057488   8.9523309  41.6848707  86.6591835  92.1397305
  41.1289215  86.3892460  91.4087868  42.1003342  87.4673557  91.8389320
  57.5085783 106.3057804   3.5291061  57.0546913 105.7733822   2.8758314
  57.0547438 106.1158085   4.3501884  15.3216541   3.2275051   0.4984826
  16.0617149   3.7441570   0.1797174  15.0783479   2.6742971  -0.2438077
 110.3455353   6.4622492  29.6449685 110.9391689   6.9834948  29.1044760
 110.1679039   5.6812412  29.1208458  65.4630661  71.1770058  84.5222569
  66.2928152  71.0011482  84.0786076  64.7990894  70.7937527  83.9491177
  56.6946840  45.4615116  86.9356441  57.3763943  44.8000145  86.8176842
  55.9804249  44.9946594  87.3693657  34.5184517  72.0144939  91.9654655
  35.1682210  71.3635826  92.2307014  33.6916757  71.5326118  91.9439411
  18.3285177  24.4591904  12.2498024  17.7347207  23.7101912  12.1984446
  19.1623771  24.1270065  11.9172883  12.2009301  13.3354104   0.2015978
  11.7086065  13.7942052  -0.4791054  11.6302752  13.3628249   0.9696043
 101.5861511  28.0965352  29.2487645 102.1122742  28.5203433  28.5706687
 101.7329216  28.6267114  30.0320935  31.6618323  97.7452278  55.8973217
  31.1348963  97.0081997  56.2061167  31.3887930  97.8707314  54.9885178
  16.6238749  63.5472012  70.0525570  16.7967308  63.4954786  69.1125154
  16.4240885  64.4701672  70.2089262   8.2696342  60.2960443  91.5731525
   8.3670181  59.8711777  92.4253464   8.0085486  61.1931372  91.7812061
  50.2021980  83.1374550  22.5661492  49.5836306  83.4951687  21.9292474
  51.0406446  83.1245422  22.1045494  73.0434752  81.2216949  25.0617337
  73.5360241  81.4601707  24.2763972  72.7799082  82.0593166  25.4427171
   4.9983063   7.8868598  15.2158248   5.7303369   8.3290792  14.7859347
   5.2270049   6.9579613  15.1830220  25.8608031  40.9450340  89.9763393
  26.1231589  41.3239908  89.1374111  25.9472513  41.6645527  90.6016731
  87.5639343  33.3567572   3.3664569  88.5076809  33.3200026   3.2108283
  87.4221134  32.7786803   4.1160887  56.3912153  86.4389420  61.0519075
  56.4582634  86.2202263  61.9813681  57.2250462  86.1540031  60.6780434
  55.8427429  77.5630569  80.4530907  55.4750443  77.5423574  79.5695734
  55.4788446  76.7886543  80.8821678  84.5417309   7.3678690  31.7100811
  84.1070175   8.1547463  31.3813257  83.8573074   6.6986918  31.7107749
  18.9290369  68.2846308  89.1347504  18.9245415  67.4904060  88.6005020
  19.8516846  68.4249592  89.3474960  94.6488857  31.1429954   3.1242150
  94.0245628  31.7015862   3.5872874  95.4479599  31.6675448   3.0736980
 109.7866154  14.5951056   2.7965486 108.9359093  14.4706714   2.3757707
 109.9991417  15.5151296   2.6396462  84.1207314  85.0759697  54.4416380
  85.0361156  85.0131607  54.1689253  84.0594769  85.9239769  54.8813772
  12.5823200  26.4921284   5.8901429  13.4482706  26.7586231   5.5813682
  12.2616267  25.8929229   5.2160943   0.4520935  39.2436504  14.1907191
   0.5992652  38.2985592  14.1536498   0.8359700  39.5132828  15.0250864
  33.6215949  97.3075104  92.5855350  33.5815573  97.5944710  91.6732407
  33.3585596  98.0770111  93.0904293  70.8926201  11.2927735  18.0822945
  70.3608751  11.9766223  17.6750696  71.5556002  11.7700982  18.5811377
   8.2844555  99.4810009  87.1607208   9.1214335  99.4330120  87.6226711
   7.9594564 100.3623104  87.3448277  95.7783604  91.1491108  55.6556749
  96.2233925  90.8507919  54.8624611  96.3474941  91.8341923  56.0063696
  65.9673691  12.4492192   1.7835559  66.7320585  13.0225372   1.8363599
  65.2401733  12.9910553   2.0898692  11.6489172  60.7295036  90.9388733
  12.5943875  60.5867243  90.8949280  11.3197136  59.9955463  91.4576817
  13.8395476  24.6881461  73.8968277  14.6768260  24.9498582  73.5138130
  13.8448286  23.7319374  73.8535690 100.2019501   1.7494218  16.1858714
  99.7547340   2.5930750  16.2527847 100.8935261   1.8954712  15.5404079
   3.5356140  13.2919800  12.1104002   3.8593763  12.7849913  11.3658392
   3.2011288  14.1005218  11.7223144  87.6867771 101.5542126  51.7518902
  87.0162201 101.6635418  52.4261475  87.9851627 102.4441624  51.5643024
  21.8913817  78.4919357  87.4480438  22.0621014  78.2688570  86.5329933
  21.1537290  79.1008997  87.4125099  58.2747650  67.2707129  85.6067944
  58.8806534  67.9522705  85.8976746  57.9782915  66.8528175  86.4153099
  16.6730535   6.0211861   3.2851893  16.2266636   6.3348818   2.4987020
  16.1080694   5.3245872   3.6195168  81.3661480 101.7370605   6.7527193
  80.9143448 102.3544407   6.1774397  80.8666706 101.7607403   7.5689262
  87.2871304 106.7848492  28.8293552  86.9127274 107.3872280  28.1865501
  87.1416378 107.2137165  29.6726441   8.5991287   1.8132219  58.1796455
   8.8943136   1.0248400  57.7240658   9.2166156   1.9168331  58.9036655
  50.4406118  54.4778299  87.2957706  50.4949427  53.7632370  86.6612339
  49.9065161  54.1257668  88.0078220  83.7044430  98.6697960  36.2760210
  83.5814190  97.7215004  36.3188219  84.5493126  98.8210678  36.6997313
  43.9641523  92.7624893  54.1068888  44.7343969  93.1301022  53.6735058
  43.3643055  92.5520229  53.3912611  28.0653572  88.9535046  82.6492310
  28.1605816  88.9433193  83.6016273  27.6731300  89.8051929  82.4568367
 109.6065712   0.9567728  24.3867826 110.2771378   0.2803596  24.4818830
 109.9920940   1.7345896  24.7900271  18.0945337  77.3104763  81.6865063
  18.1459951  76.9625139  82.5767326  18.0209637  76.5350580  81.1301422
  35.7637286  40.8262396  85.8223057  35.1881766  40.6281614  86.5610504
  36.6113806  41.0175991  86.2236786  13.1637251  52.5231218  92.7607918
  12.2368884  52.2926331  92.8246880  13.1714606  53.3558655  92.2888756
   0.5565097  33.2256532   8.2374263   0.2219061  32.4969840   8.7602180
   1.5053624  33.0997014   8.2306361  85.3945732  99.1467667  19.7337830
  84.4466686  99.2582798  19.6611774  85.5875015  99.3295765  20.6533408
  26.0115457  15.8686554  50.7439661  25.6634545  15.1555192  50.2087069
  26.6066790  15.4386866  51.3581133  67.6098299  89.2496204  12.4419141
  67.1187067  89.3280792  11.6240680  68.4097576  88.7843513  12.1972358
  14.8794556  38.2072663  85.8625031  13.9670169  38.3737350  85.6259060
  15.3180695  39.0479040  85.7314301  57.3691702  81.3720989  18.2913363
  57.8031874  81.6543770  19.0964329  56.5419483  81.8536377  18.2836831
  13.3831155   5.4293656  83.5047245  14.0918338   5.8700794  83.9734650
  13.8271356   4.8024216  82.9337406  89.4672775  39.8015237   6.6078216
  90.0851345  39.4419909   7.2443885  89.2860508  39.0740538   6.0126936
 100.0468731  92.1426296  26.9608283  99.2873573  91.9501019  27.5106430
 100.2982616  93.0338573  27.2032046  86.5375996  95.5460167  25.6802464
  86.7421055  95.1995468  24.8117042  87.3879337  95.6264305  26.1123443
  46.9585562  49.5308256  82.7518749  46.7859983  50.2165461  83.3970356
  46.3499022  49.7161722  82.0367336  27.4841547   0.5907197  35.2282333
  26.7589808  -0.0134023  35.3875804  27.2198701   1.4019231  35.6622076
  10.7477975  15.8865106  21.8560672  11.1946249  15.8373547  21.0109878
  11.4342678  16.1328542  22.4759912  89.7024632  93.3618355  23.0604959
  90.5441475  92.9676628  23.2894564  89.8027802  93.6265469  22.1461129
  79.6077442  20.2972126  38.2168293  79.6296406  20.5605221  39.1368389
  79.7123432  21.1153007  37.7310061 111.3114262  10.1571906  18.5869360
 111.3943100   9.2501444  18.2926059 112.1368504  10.3396630  19.0359473
  19.4637620  16.2195098   6.2501764  19.9520802  15.8444488   6.9830513
  20.1384497  16.5098810   5.6364065  21.7287087  60.5091476  83.7550640
  22.2899723  61.0023212  83.1567383  21.6594410  59.6410656  83.3577442
  96.7025089   8.9245325  38.4104800  96.7079735   8.9857769  39.3657041
  95.8146000   8.6401147  38.1937861  38.7389636  85.9201050  85.3862953
  38.5215330  85.8813286  86.3176727  39.2318749  85.1162434  85.2217579
  12.3997915   2.4432486  27.5226593  11.5074694   2.7056420  27.2965121
  12.8160596   3.2489908  27.8288150  29.9544215  11.2613332   0.4938293
  29.1734648  10.7084811   0.5201621  29.7095871  11.9950104  -0.0700914
  78.6326933  11.1302626  11.6608274  78.9486027  12.0143557  11.8474114
  79.2957211  10.5538416  12.0407844  34.2046642  55.9304762  88.1839848
  33.5147429  56.5939236  88.1929111  35.0048375  56.4142656  88.3886814
  95.3642178  58.1534672  16.6385567  95.7348728  57.3513508  17.0065939
  94.6731567  57.8498650  16.0499167  77.0309162  16.0877180  23.0875087
  77.3215818  16.0434520  22.1765828  76.1399603  15.7381642  23.0718827
   3.5751832   7.8680384  23.3126616   4.0953958   8.4540153  23.8624263
   3.4009534   8.3752960  22.5198412  98.5550308   9.1308600  23.8076591
  97.7395630   9.4194090  24.2175174  99.2104530   9.2030418  24.5015240
  15.1640522  49.1893101  67.5842810  15.3945172  48.2886553  67.8121948
  15.7457960  49.4085360  66.8564415  34.7165489  65.2275085  86.2723541
  35.5347228  65.4246664  86.7283726  34.4328332  64.3906975  86.6404343
  38.2988238  72.0664454  10.2414823  39.0690494  72.2496843   9.7035140
  37.6322627  72.6736116   9.9201167  65.3519583   7.9309601  90.8125305
  65.4520130   8.2182360  91.7201042  65.5658674   8.7048352  90.2913857
  90.2659035 105.4529476  45.4278088  89.7855091 105.5130959  44.6020746
  89.9831486 104.6218872  45.8094120  58.3414221 107.1907997  11.4506280
  58.4793520 106.4826393  10.8215702  59.0395308 107.8179741  11.2621152
  81.5340424 107.1771336   4.5394513  80.6727123 107.5772095   4.4199273
  81.6228199 106.5746021   3.8010031  61.8470001  88.6297131  41.9871902
  61.3407421  87.8887177  41.6542387  62.2511148  89.0128422  41.2086439
  65.7974339  99.8255634  26.2472868  65.4537392 100.6062889  25.8130479
  66.5975523 100.1244640  26.6793704  59.7210169  92.2154999  40.7737160
  59.9118996  91.3722515  41.1844826  59.9132061  92.8618240  41.4530993
  20.2703381  23.2422090  10.7619953  19.7957993  23.0052471   9.9651939
  20.8126044  22.4772215  10.9542727 110.6008244  14.5831943  40.2489376
 111.2814903  14.5679092  39.5761180 111.0802650  14.6711636  41.0727262
  12.1610105  72.4737692  59.8505259  11.8349636  73.1896687  60.3958797
  12.6828146  71.9368601  60.4469156  96.3526249  90.6220722  88.0126762
  96.2819862  89.8838043  87.4075222  96.8542099  90.2785778  88.7520313
  39.6881127  48.3372116  67.5066948  39.8836422  47.9159021  66.6697359
  38.8385177  48.7567234  67.3709583  40.5364084  88.6005116  84.2715740
  40.5536938  89.5546150  84.1966343  39.6408653  88.3579636  84.0361977
  61.8607998  10.9535229  26.7718744  62.0531225  10.5995619  27.6401806
  61.0179853  11.3954794  26.8746781 108.7038040  31.2805128  28.1198668
 109.0196133  31.9047713  28.7731647 109.3362522  31.3424349  27.4040389
  10.8142745  99.9852085  88.4057236  10.9974170  99.6633148  89.2883778
  11.6509104  99.9135017  87.9462337  53.0031776 101.9249249   4.5394540
  53.3519697 102.7325249   4.9167627  53.6275434 101.2486458   4.8021904
  63.8480854 102.1817493   5.3330290  63.9964247 102.9345703   4.7607687
  63.7598181 101.4398098   4.7347274   7.6195657   1.4789692   4.3340039
   6.8344045   1.0464568   4.6696913   7.4881077   1.5122581   3.3864585
 103.1092072  34.2272377  12.0826340 103.9564705  34.1505432  12.5213802
 102.5962543  33.4940267  12.4224985  79.7398806   3.9772204  19.9977744
  79.5938587   4.5998082  19.2855287  79.2353582   4.3294668  20.7309961
   7.7270365  79.1387987  83.4294605   7.3126161  79.3183327  84.2734146
   8.1899536  78.3113909  83.5611439  55.7017851   4.3887138  81.1239529
  56.4454556   4.9084234  80.8188534  55.0067568   5.0297290  81.2731934
  50.7958221  46.3491249  74.8025274  51.0230112  47.0511580  74.1927958
  50.9157324  46.7367268  75.6694841  89.8356819  86.9212151   4.6648288
  90.4459667  87.2478867   4.0037167  89.5285320  87.7072811   5.1164830
  55.3748465 105.4378700  36.8387651  55.8361769 105.3172493  37.6687384
  55.8130169 104.8409081  36.2322307  42.1586132  99.1274738   2.5898755
  41.4768648  99.7842503   2.4481139  42.9578257  99.5363045   2.2576879
 101.9945240  57.4835730   8.7378776 101.6418743  56.6252422   8.5030746
 101.2212753  58.0307436   8.8754338  13.8179648  45.4980469   8.6431003
  13.8473308  46.4466667   8.5186511  14.7052264  45.2647257   8.9161545
  96.1149597  97.6482201  24.9779415  96.4879704  96.9904995  24.3910050
  95.1811695  97.6548481  24.7676826  52.4098492 103.4797955  17.6589918
  52.5621986 104.1744614  18.2996666  52.1371841 102.7264690  18.1828010
 100.5230904   9.0650487  11.5224862 100.2541828   9.7921026  10.9609568
 100.7203674   9.4736350  12.3653197  20.2644444  35.2926612  60.4451370
  19.6745062  34.6885657  60.8959961  19.6993005  36.0100007  60.1583147
  46.9356966  97.5741577  41.3452911  46.7344141  97.2868919  42.2359037
  46.1595917  98.0620384  41.0698366  54.9144220  28.3492231  89.2981720
  53.9975357  28.5896063  89.4314766  55.2236748  28.9506769  88.6207867
 105.0030041  99.0825653   0.8770582 104.2908001  98.8144779   1.4576863
 105.2054501  98.2975864   0.3680910  77.8063631  26.7676210  42.0335913
  77.0088959  26.9473505  41.5356207  77.5573778  26.0713577  42.6414156
  15.8023870  12.5057542  37.3219633  14.9637246  12.5163233  37.7832270
  15.7480073  13.2391477  36.7092586  52.2290230  81.3612747  88.9046574
  51.5045738  81.5995979  89.4831181  52.9853535  81.2861156  89.4865036
  94.9467373  89.7183514  77.8170204  95.7696533  89.5086765  78.2587051
  95.2120495  90.0313950  76.9522429   7.0517522  12.6469135  63.5596085
   6.1516041  12.6202059  63.8840342   7.3498130  11.7384434  63.6051512
 109.4620705  91.2458992  69.5347404 109.6063900  91.5146160  68.6274385
 108.8662815  90.4993916  69.4715595  68.6447620  36.6775393   0.9812381
  67.9025602  36.0746026   1.0241437  68.3136845  37.4304891   0.4916604
  62.1063614 106.6113091  54.9780273  61.5293884 107.2300243  55.4258204
  62.5682306 107.1415138  54.3285704  58.7481928  99.9234676  42.2750187
  58.6449766 100.4518127  41.4835453  57.8856230  99.9420643  42.6895809
 100.5663490  11.6003084  20.1925707  99.9179935  10.9517765  20.4669261
 100.9321213  11.9345999  21.0115290  19.3838835  61.6054869  84.9344254
  19.7852802  62.4322414  85.2019787  20.0455213  61.1845970  84.3855000
   0.9306784  42.2197628  16.3498306   0.3537188  42.8401661  16.7953098
   1.4040524  41.7823172  17.0574939  71.2707186  84.2402172   2.6739493
  71.3477612  83.8466930   3.5431069  70.4930210  84.7953892   2.7304754
  70.9898949  56.1238337  87.3669910  71.8845606  56.3908434  87.5779629
  70.7226372  55.5769968  88.1057549  78.1526709  86.1525726  43.7971258
  77.6958323  86.8929482  43.3979225  78.8473988  86.5533066  44.3196154
 111.0546684  15.9297502  31.9147396 110.1323128  15.8208013  32.1462870
 111.1299515  15.5428672  31.0424519  11.5285790  14.3325627  15.4673934
  11.5305114  15.1802862  15.9119081  10.7330310  13.9007378  15.7786202
  11.6316569  22.6926231  23.6343980  12.2143531  22.6411724  22.8767371
  11.3266027  21.7945480  23.7633657  39.9080563  49.8322392  60.0739622
  40.7526588  49.6823263  59.6492243  39.6000195  50.6615591  59.7084856
  98.6347580  96.6585350  28.8477635  98.4990215  96.4924049  27.9149151
  99.2718029  97.3724937  28.8736796  60.1182985  95.7942390  44.6664381
  60.3271008  96.5165806  44.0741062  59.7503996  95.1173592  44.0983534
  39.5773864 102.2787571  33.6879921  39.8355794 101.9071579  34.5314884
  39.9049473 101.6542149  33.0407858  19.1932631  28.5517621  16.5089118
  19.7642601  28.3232331  15.7754469  19.6910453  29.2001128  17.0069933
  97.3541546  75.5568457   6.9273943  98.0718327  75.0592470   7.3192775
  97.3659611  75.3069639   6.0034621 109.1191864   4.6320614  12.2077322
 109.8652458   4.5451275  11.6143823 108.5772038   3.8645127  12.0250976
  20.3112531  26.3071251  32.7043676  20.6976151  26.0421109  31.8696690
  19.4267428  25.9417176  32.6856279  16.7284369   1.4092292  15.3291190
  17.4811828   1.4949629  15.9141445  16.0855913   2.0292023  15.6735241
  93.1909084   4.0839562   2.6508653  93.9287758   3.7490252   3.1603771
  93.5959244   4.5220754   1.9023685  72.5333071  26.9569683   7.2132033
  73.3029509  27.3613858   7.6136124  71.7930937  27.3100710   7.7067941
  29.7945166  45.6366682  90.8177185  29.6574855  46.5526438  91.0594654
  30.1655340  45.6745434  89.9361610 106.6700363  81.8850613  92.1857452
 106.0029602  82.5023270  92.4861145 107.3978710  82.0032120  92.7961063
 109.8143673  43.0525208  17.3268843 109.0293121  42.5661230  17.0752215
 110.4366493  42.8857708  16.6189408 108.8255882  91.5327263  31.1669850
 108.4252739  92.2555828  30.6838059 108.5921001  91.6969776  32.0806265
 108.7022591  67.8131962  82.1563911 109.4876862  68.3385324  82.0035839
 108.6776161  67.6896381  83.1052685   9.1070658  13.9742696   4.5287874
   9.1710591  13.0211556   4.5896998   8.2090551  14.1360319   4.2395791
  24.2846799  74.5177460  92.3192120  24.4599247  74.3161249  93.2383823
  25.0998139  74.9042034  91.9991493   9.2399395  18.3571112  10.2547467
   9.1557133  18.6068225   9.3345392   8.4427643  18.6898005  10.6671321
  69.2999268  62.6142073  16.4215469  68.4916306  62.3566818  16.8649030
  69.0894508  63.4507179  16.0066032   9.6588439  34.3824434  16.4430046
   9.3020779  33.9562249  17.2222912   8.8887489  34.6852851  15.9618890
  13.6283576  70.1617718  91.4944935  13.2018280  69.8887873  92.3067665
  14.0652227  69.3718100  91.1761570 110.3803444  21.4326286  34.9031568
 110.1979446  20.7291698  35.5261350 110.9384251  22.0418668  35.3864932
  40.3100920  86.3363266  80.1714134  40.6567764  87.2091484  80.3564358
  40.9768867  85.7375336  80.5076599  98.4508705  13.2523775   4.6264666
  99.3156528  13.1723237   4.2240188  98.5400581  12.8171980   5.4743439
  69.3781376  84.3030834  21.7974663  68.8205433  83.5368061  21.9321036
  69.5101976  84.3397331  20.8501291  54.4642496  80.9349537  28.7352443
  53.8147020  81.0199356  28.0373192  54.5771694  81.8256569  29.0671039
 107.7527237   3.5199398   9.9043393 107.3910713   4.4018286   9.8165077
 108.6256504   3.5792863   9.5161366 110.0002098  26.6622567   5.9241444
 109.4646263  26.3833094   5.1814634 110.3396893  27.5192404   5.6661439
 107.0522881  31.8677139   1.0514440 107.8134727  32.1540809   1.5562356
 107.1576500  32.2899199   0.1988763  95.6005001  15.6839025  21.1811590
  95.6651688  15.9036899  20.2517819  94.7518539  15.2493632  21.2660360
  96.9035625  49.4139671  35.0872803  97.4090481  48.9717531  35.7693076
  95.9910202  49.2963982  35.3512430  30.9211683  57.1818209  66.4059877
  30.9345841  57.9878378  66.9221210  30.2848911  57.3526382  65.7115793
  97.8079510  27.4860477  26.6025090  97.5997925  28.2963228  26.1373639
  97.6891041  26.7971969  25.9486055  48.5922337  48.6615658  87.7972412
  47.7649069  49.1205025  87.9426479  48.4683084  48.2016706  86.9669628
  23.7996554  15.9942913  22.3275280  23.5587740  15.0847948  22.5036645
  23.9814997  16.3654089  23.1909156  11.3672519  74.9337530  91.5296650
  11.2602520  75.4896832  90.7578278  11.9465244  74.2293358  91.2390232
  40.8279467  81.0297108  52.2019005  41.4471483  80.7846642  52.8894854
  40.9726429  81.9669724  52.0721912  99.2654419  31.7793941   1.2191088
 100.0663567  31.9981384   1.6954617  99.5496273  31.6658425   0.3121495
  84.2240238  21.9181490  20.6334519  84.0421486  22.3142362  21.4856672
  83.6590290  22.3923922  20.0234437  97.6579666  14.4332325  16.5885854
  98.0307198  14.3421519  17.4655068  98.3649731  14.8116326  16.0659194
  61.8582249  42.2514629  17.7944088  61.2053204  42.5720644  17.1721840
  62.3788881  41.6238594  17.2931540   1.0452868  47.0927572   0.0253189
   1.6982174  47.7828789  -0.0915023   0.9222023  47.0374155   0.9729578
  58.4896326 104.3971252  81.7317104  59.3824482 104.0692329  81.6240120
  57.9547644 103.6089325  81.8260384  64.6115112  81.4207363  86.9801903
  64.1552401  82.0978928  86.4806843  64.3919516  80.6038094  86.5322495
 105.0869179  25.8731079  21.5828276 105.1471043  24.9971247  21.9639611
 104.7248650  25.7295156  20.7084537  64.1322422  61.3413191  83.3429718
  63.5635662  61.8853569  83.8878250  64.3207550  61.8838501  82.5772381
  44.2095709  94.4580746  84.3809319  44.3874359  95.3702450  84.1517258
  43.2916403  94.4538975  84.6522617  92.7360821  13.7424791   8.9577383
  92.4538136  14.5867634   8.6059660  91.9264603  13.2415795   9.0569144
  44.9193668  23.6515546  85.9478855  45.6717348  24.0721965  85.5316639
  44.8157215  22.8251410  85.4761505  18.4073544  22.5798607  20.7797813
  18.4183323  23.0708861  19.9581933  19.1976500  22.0407844  20.7472062
   8.4930527   1.7041628  38.6392403   8.4423149   2.0777053  39.5190835
   8.7452620   2.4396518  38.0809593  59.5303679  41.3501549   4.8651618
  60.4510164  41.0881615   4.8642668  59.3815660  41.7053127   3.9888340
  42.2932339  84.7605705  85.2684021  42.4719763  85.6362438  84.9256420
  42.7804899  84.1731644  84.6906757  60.6338215  92.7008724  25.0103450
  60.4621792  92.1430111  25.7690024  61.5714550  92.6001740  24.8462415
  88.9123440   8.2189572  23.6931968  89.1015244   7.4173319  23.2055116
  89.4971657   8.1824976  24.4500899  39.0383148  11.4109385  25.4368854
  38.7612176  12.3268747  25.4142666  39.4810581  11.2738967  24.5993710
   8.3536631  39.7193170  10.9584320   7.9915375  39.6674705  10.0738931
   8.7978089  38.8808894  11.0849333   8.5259527  62.1063042  66.2296724
   8.3449203  63.0409098  66.1298180   7.8828943  61.6762209  65.6659937
  98.4059525  28.9855719  -0.1643963  98.0453777  29.7858000   0.2175119
  97.9190636  28.2780290   0.2581559   8.0040520  48.6982393  18.3146405
   7.2048682  48.2939863  17.9768252   8.2108247  48.1972599  19.1036272
  11.9038367  25.0358844  17.5995874  11.1578226  24.7810888  18.1425190
  12.6436198  25.0627089  18.2064092 113.0178642  41.5177870  20.7470298
 113.4192276  42.1487474  20.1495123 112.8366470  42.0212936  21.5406775
  93.9812565  24.5825768   0.5525606  94.4702053  23.7608624   0.5967075
  93.1626892  24.3509316   0.1137936  30.3314948  50.5959272  25.3496003
  30.7252979  50.2825212  24.5353985  29.9299431  51.4325380  25.1149249
  85.2097130  16.4246416  81.4065933  84.9108696  15.7633150  80.7824326
  84.4381523  16.6171169  81.9393921  90.3752136  34.7411108  26.2795353
  90.1691341  35.3644156  26.9761395  90.5767059  33.9260912  26.7392921
 108.6717224  30.9258342   4.6823248 108.9120388  31.4997339   3.9549175
 109.4840336  30.4727578   4.9083975  82.0465755  67.5921011   7.6275718
  81.6512012  68.1654263   8.2842410  81.4398766  66.8551397   7.5565875
  15.5404305  87.4280548  90.2874279  15.6901264  86.4832592  90.3218174
  14.7491455  87.5260544  89.7578049  74.7156191 100.8654499  14.1780055
  74.4079208 100.9021759  15.0836575  75.5679655 100.4332256  14.2319715
  20.9387326  47.2837591  31.7756486  21.6181612  47.8162670  31.3620734
  21.4151192  46.7155170  32.3809528   1.1495463  36.3360167  14.7185171
   1.4222136  36.1698437  15.6208861   0.4625672  35.6903100  14.5531261
  58.2134962  62.7559471  11.1413622  58.3009386  62.5649548  12.0752287
  57.5606775  63.4547567  11.0999107  61.2609053 101.9722939  90.1933670
  61.6449976 101.1051941  90.0635624  61.6388416 102.2808170  91.0169029
  48.1112337  67.1760130  89.8160648  48.2595062  66.2487221  90.0014973
  47.4312639  67.4385929  90.4364872 108.2184505  39.1067529  23.5119414
 108.2702637  39.9289560  23.0245709 107.4367046  38.6738324  23.1688905
  69.0625572  86.0370827  84.9828815  69.6049595  85.2488327  85.0091934
  68.7514019  86.0836601  84.0788651   5.7202679   5.4394716  13.6544931
   5.5091977   5.9149897  12.8510237   6.6658568   5.5482394  13.7557995
 108.0117130   7.8730536   1.2616256 107.5549984   7.1580231   1.7047709
 107.4681854   8.6433977   1.4270836  18.1590569  81.2514019  75.9266186
  17.5808692  80.4953480  75.8251238  19.0411842  80.8798122  75.9283209
  36.4080477  23.0119419  14.3187201  35.9802699  23.6740994  14.8616612
  36.9898462  23.5113835  13.7457454  56.9165182  94.2138290  67.2364092
  57.4377632  93.4879112  67.5792980  57.5572586  94.8977757  67.0417213
   7.1674448  21.8568563   8.2368654   7.9234517  21.8206882   8.8228494
   7.0157498  20.9459019   7.9851091  27.5572133 100.7384396  71.9298697
  27.2516561 101.4877224  72.4411821  27.3010969 100.9418869  71.0302925
 107.6022720   7.7474117  11.9278955 108.4898949   8.0382901  12.1370888
 107.2941685   7.3234022  12.7288437  39.6669436  51.7127657  80.5424786
  39.7023630  52.3108339  81.2889957  38.7679029  51.3841963  80.5412579
   7.8288001   0.9934079  17.1402812   7.3069596   0.3762889  16.6273689
   7.4845922   0.9163914  18.0301237  36.7490125  66.1951780  87.7094364
  37.0076084  66.9776106  88.1964207  37.5678134  65.7203865  87.5667095
  36.3019967  91.9728851  49.9148893  36.8008637  91.1871719  50.1385498
  36.9407582  92.6841068  49.9636126  92.4253654  44.9306631  22.8220272
  92.3938465  44.1181803  22.3169470  91.9003010  45.5490494  22.3139548
  50.2622128  93.0002308  92.1811581  50.1796103  93.4387779  91.3343525
  49.3638229  92.7751446  92.4229622  24.4056511  66.7547798  90.8586884
  24.8358178  66.1887980  90.2177048  23.8071370  66.1735487  91.3279247
  56.3959503  78.6873007  92.2142029  56.8922710  79.5056057  92.1976280
  56.8995094  78.1134081  92.7915287  31.0468841  19.8400486  37.9593396
  30.6483126  19.0048695  37.7146983  31.6406512  20.0429273  37.2364879
  12.9449475  47.1499109  19.2577446  12.1519196  46.8609190  18.8062775
  13.3892274  47.7135420  18.6243653  47.1944618 102.0096207  86.6462803
  47.1183062 101.0556412  86.6650391  46.4475822 102.3196316  87.1584320
  18.4299040  68.3762217  85.0934505  18.9867270  69.1443443  85.2206230
  17.8848660  68.5978603  84.3384361  15.6622720  44.6390200  85.5351543
  14.8086619  44.2283535  85.6727600  16.2071562  43.9421654  85.1694679
   2.8074372  16.8105602  14.5504928   2.7664790  16.2839556  13.7522197
   3.1259713  16.2056077  15.2204192  11.8077624  78.6978865  92.1595097
  12.5651193  78.8962698  92.7102280  11.4781225  79.5545292  91.8879604
 113.7268353  47.6310205  82.7314472 112.7862549  47.7995729  82.7874660
 113.8130569  46.6938877  82.9063129   2.0181909  69.3197966  90.3421116
   2.6443473  70.0400496  90.2686596   2.4605455  68.5753345  89.9342728
 105.7777596   4.0278691   1.4555885 105.2153111   3.3080149   1.7413971
 106.1201668   3.7424886   0.6085077 110.3664684  49.2246437  13.6659658
 109.5839214  49.5729685  13.2387400 110.4991055  49.7940350  14.4238794
 111.6127872  24.8692775  21.4476395 111.5078640  23.9288020  21.5916109
 110.8441257  25.2621222  21.8612313  99.2033958  73.2577324  20.3609133
  99.7881603  72.8395700  20.9929132  99.7391701  73.3680630  19.5754230
   2.5891092  81.4900684  84.4931889   2.7634782  80.8042526  85.1377678
   2.7909732  82.3060417  84.9510765  90.2369785  64.2944193  22.6664090
  89.5994282  63.9978790  22.0169258  89.8515701  65.0894165  23.0347490
 100.5340385  31.6308117  41.8833542  99.7499847  32.0229650  42.2676897
 100.2222538  31.2059951  41.0842609 112.4471188   7.6069093  11.9770670
 113.0575657   8.1307220  11.4582121 112.9906559   6.9225305  12.3674870
  53.3078957  76.0436726  92.4565411  52.6704741  75.3649426  92.2346115
  53.2709265  76.1040449  93.4111214  86.8358803  79.4120312  84.8295879
  87.5920486  78.8263512  84.7918797  86.7480946  79.7475672  83.9374352
  99.5045090 105.9379673  48.1261635  99.3746281 106.3996410  48.9545441
  98.6407375 105.9384346  47.7137089 109.1623116   7.4782521   8.9704818
 109.2351723   7.9202509   8.1245738 108.3389378   7.7991915   9.3382847
  45.9775972 105.5914307  92.3634338  45.2340603 104.9967670  92.2646713
  46.7388296 105.0661087  92.1168613  22.4687195  58.0433702   3.8726965
  22.4867129  57.2475004   4.4042024  21.9742608  58.6717033   4.3989486
  13.8838351  47.4040079   2.3105596  14.1733181  48.2774878   2.5741282
  14.5681965  46.8174839   2.6328459  61.2268925  77.8040838  78.9891863
  60.4022503  77.4493790  79.3214226  61.8800545  77.1408749  79.2122793
  15.3330708  58.3381557   9.7542846  15.9369302  57.5957727   9.7329700
  14.4846714  57.9507017   9.9695230  33.4855509   5.1085865  18.5919952
  34.4223022   4.9117962  18.5903013  33.0995107   4.4312006  19.1472912
   3.6166194  40.2282190  14.2475343   4.4326833  39.7395134  14.3544877
   2.9683626  39.7220039  14.7371674  13.9946663  19.2583489  10.3213263
  14.3679345  18.6588371   9.6751922  13.1966698  18.8221264  10.6198931
  26.5953469  98.5297108  92.6497269  26.6491866  97.5845146  92.5085163
  25.7009983  98.7590504  92.3971939  61.3841677  80.9878254  29.0697384
  61.2729120  81.1090279  28.1267834  61.8913746  80.1799488  29.1491866
 110.1637077   6.3943362  36.3348079 110.4457283   6.1274326  35.4599047
 109.2118454   6.2943494  36.3205218  28.1924558  89.1338158  73.0995893
  29.0249467  88.8145065  72.7514029  27.7906466  88.3643532  73.5029650
  37.9926419  84.5036602  79.2656422  38.0564117  83.5910320  79.5471907
  38.6744380  84.9558163  79.7625732  48.7834740  87.7016544  88.8459969
  48.3321571  87.9834843  88.0503082  49.0967321  88.5138226  89.2440987
  19.5361030  37.4774432  31.2576675  18.6096489  37.6437831  31.0837555
  19.6238256  36.5260983  31.1987042  32.8157806  91.6559315  71.4820147
  32.7796197  91.1968327  70.6428719  33.3836102  91.1123085  72.0281649
  13.2238805  56.0678434   1.8256541  14.0807903  56.4940548   1.8089013
  13.3948421  55.2006578   2.1930742  88.9924717 101.5632629   4.9939632
  89.5237064 100.7672310   4.9755567  89.1679478 101.9485283   5.8524573
  26.5589404  46.1721945  22.3316002  26.5177107  45.2456713  22.5684333
  26.5600896  46.6339111  23.1700802  22.0700479  15.2838314   1.1359759
  22.0216799  15.6865180   2.0030028  22.8266478  14.6995628   1.1851220
  92.9109097  36.7826557   6.0127044  93.0158424  36.3823938   5.1495647
  93.7964249  36.8053985   6.3754314  51.6256046  11.2112856  75.8217716
  52.3837757  11.4553487  76.3526583  50.9018517  11.1618721  76.4462471
  85.6680870  32.9136038  44.0150738  85.8576298  32.0039392  43.7852573
  86.3487244  33.4195733  43.5712671  96.4095592  33.4700060  14.7160637
  95.7216072  32.9784083  14.2674100  97.1823120  32.9081440  14.6577954
 104.8927212  27.8158832  12.1806073 105.6778431  28.3532906  12.2855234
 104.9094963  27.5439095  11.2630129  26.6915607  61.6293859  82.0545769
  26.8356276  62.5660610  82.1891689  26.9669199  61.4720535  81.1514378
  40.9044123  83.6889267  91.7943096  40.3643799  83.2771587  91.1197472
  40.4228115  84.4797516  92.0369816   0.3387043  46.0726452  15.9235108
  -0.1575461  45.8905983  15.1254976   0.1143317  46.9766521  16.1441004
  94.5750904  31.1754394  14.0869379  95.1514816  30.4488897  13.8500297
  93.7611198  30.9990740  13.6151564  63.5373306  19.4524479  66.4879036
  63.6004305  19.4289029  67.4427319  62.6910448  19.8644531  66.3138819
  15.5206847   6.1125630  30.9846020  14.7386718   6.5808320  30.6923509
  16.1991823   6.7860371  31.0326219  88.2564449  17.3865914  43.5974073
  89.0284061  17.3575306  44.1626167  88.6037731  17.2793674  42.7119112
 103.0187130  20.0326586  34.7318602 102.8580761  20.3799534  33.8544703
 103.0793285  20.8085227  35.2891707 110.7393742  20.8835888   7.9465210
 110.6309795  20.4929566   8.8136369 110.6167126  20.1546311   7.3384017
  24.2146873  32.1189952   7.3133665  24.9319410  32.2485781   6.6928953
  24.6434736  31.8253994   8.1172168  58.3366537  75.5421162  89.3824768
  57.5843668  75.7473040  88.8273239  58.3764553  74.5857620  89.3880367
  98.5340405  55.7248688   9.8317009  98.5746098  56.1633062   8.9817840
  97.9728031  56.2877417  10.3650153 110.6495857  39.5571280   1.0244126
 110.3534794  40.2624750   0.4490511 111.5279865  39.3439364   0.7094646
   0.3767810  36.9839406  37.7480721   1.1842231  37.3376346  38.1211257
   0.0956634  37.6448822  37.1153331   8.1841189  44.8679304   7.5248510
   9.0863794  44.9335861   7.2120458   8.1316030  45.5025625   8.2394952
  80.1289368 103.9044571  64.9341774  80.8087063 104.2539883  64.3580103
  80.2338982 104.3915844  65.7514381  77.3329115  87.5282955  18.6620474
  77.9924679  86.8358707  18.6200511  77.0115852  87.4986649  19.5632172
  58.0107412   0.0106880  73.0628395  58.1130371   0.7719586  72.4916840
  58.2338223  -0.7367256  72.5079966  25.6904960  30.1280451  31.9167304
  25.1443768  29.4198942  31.5753984  26.1334395  29.7451878  32.6739979
  51.0181236  39.2505193  85.5966949  51.4458513  39.6100116  84.8194885
  50.8758116  38.3275986  85.3864574  16.0338438  37.1108985  38.8158655
  15.3867507  36.6319013  38.2981181  16.5453839  37.5972891  38.1693506
  39.8214197  93.7447643  59.7655582  39.9782419  92.8011608  59.8010349
  39.1140056  93.8937473  60.3929377  54.7603941  -0.1590919  78.0249023
  55.1646566   0.7071281  77.9752302  54.2299604  -0.2217583  77.2305822
 106.9272327  16.1415958  27.8405881 106.2814331  16.1384892  27.1340752
 107.1672344  17.0626915  27.9416585  26.8697834  53.3262539   2.1896896
  26.7261076  52.3969316   2.3684344  27.0356965  53.3661413   1.2478226
  51.8327856  46.7202711   2.5979045  51.3997841  47.5666380   2.4865329
  52.7405643  46.9412136   2.8061289 112.2937202  71.2991714  71.2585974
 112.4575329  72.2369242  71.3586712 112.8207302  70.8894205  71.9445944
  33.0018687  42.1387434  85.5033302  33.4227443  41.4278221  85.9867477
  33.1760931  42.9206419  86.0272598  90.9752369  31.0952187  14.9789298
  90.6210041  30.2059770  14.9783325  91.0219193  31.3338184  15.9047389
  44.7377586 102.4554253  88.0236149  43.9101028 102.1776009  87.6311398
  44.6170378 102.3138523  88.9625549   5.0128406  11.9475281  20.9538627
   4.3597537  11.7146075  21.6137552   4.4987622  12.2072339  20.1893306
  95.8356667  55.9744024   7.5947863  95.7541752  55.0423288   7.3927212
  96.7738628  56.1525393   7.5293386  18.4560394 106.7167568   4.5661801
  19.2185569 106.1461449   4.4702989  18.5557032 107.1057129   5.4350966
  21.3626242  74.0500116  88.1947041  21.8275785  74.2597771  89.0046692
  20.5556440  73.6248732  88.4849930  10.4805815  29.3636894   7.3115093
   9.6812326  29.8844242   7.2333521  10.1708007  28.4693503   7.4544317
   7.8554326  32.3900580  17.5631928   7.8202635  31.6882205  16.9132543
   6.9828987  32.3959899  17.9567420  31.0704589  11.6132891   6.5889442
  30.6867313  11.6890156   5.7153010  30.6392694  10.8507037   6.9746530
  92.3557949  20.3234673  15.3382134  91.8615246  20.6859779  16.0734141
  91.7246532  19.7746730  14.8726749  31.8983054  87.1119595  91.9841099
  31.4966607  87.9800606  91.9478226  32.8057647  87.2783852  92.2391701
 106.7439365  17.8191757  34.4269323 106.7380238  16.8686080  34.5392632
 107.0677090  17.9530799  33.5361600 105.8700657   9.1624123  32.6960063
 105.7163334   8.8796091  31.7945528 106.5452862   8.5673314  33.0218649
  30.2397346  24.6692491  21.2960362  29.4856405  25.1190472  21.6771626
  30.8890533  25.3600311  21.1639929  81.6776657  10.9047270  83.8402367
  81.2893200  11.6972923  84.2107201  80.9373093  10.3109670  83.7155819
  34.9803329  61.5622187  62.7352238  35.8720422  61.2289381  62.6351690
  34.4471192  60.7803631  62.8788042  83.7824821   6.0783887  71.4150906
  82.9466057   6.1203218  70.9505749  83.5747242   6.3553137  72.3074913
  23.5537839  50.3642464  36.4966416  24.0201545  51.1129570  36.1249471
  22.6376081  50.5123997  36.2623310 100.5521774  13.8315105  89.3139076
 100.0164986  14.4006312  88.7612915 100.7177830  13.0593431  88.7730122
  30.9983706  47.1705294  14.3668699  30.9796143  46.8120623  15.2542174
  31.8599844  46.9270706  14.0283668   0.2185169  28.6782217  36.9528270
   0.8273880  28.9548945  37.6376343  -0.1307726  29.4958496  36.5982676
  45.3518724  82.3263741   4.4718039  46.1104774  82.8351784   4.1856712
  44.6639347  82.9779148   4.6077290  50.9390259  91.6200829  82.2375298
  51.8443108  91.7915249  81.9781113  50.5272007  91.2652779  81.4496517
  50.8494759  74.6670675  92.6580238  50.8855677  74.2320776  93.5099125
  50.7397032  73.9537048  92.0292950  42.3070145  67.1105719   1.2998012
  43.1624174  67.1100616   1.7293522  41.8855619  66.3069344   1.6044012
  36.5523911  48.7821579   3.0221918  36.7731595  48.7856913   2.0908055
  37.1205378  48.1110764   3.4004658  55.8611441  70.9928036  88.4709167
  56.5819645  70.3643179  88.5115910  55.3600454  70.7328463  87.6978970
  92.2036076   5.2384150  58.0386400  92.2939205   4.3336046  57.7396584
  91.5417862   5.6169665  57.4599123  43.4663343  37.1418524  13.7597287
  43.5747290  36.8238568  12.8634238  43.0426264  37.9945564  13.6617446
  45.0376987 105.8065987  75.8104753  45.5806351 106.5717506  76.0001898
  44.5382643 105.6620884  76.6141605  34.8797202  63.2832289  35.8599234
  34.3401980  63.7436390  36.5027046  34.4407749  62.4414206  35.7377887
  82.0197964  87.0617771  82.8505516  81.8942070  87.2498131  81.9204426
  81.4399719  86.3205433  83.0254745  89.1198540  36.9708323  60.5675745
  88.8487911  37.1185112  61.4736366  89.9934006  37.3582983  60.5127239
  27.5662613  43.9122200  11.1082149  27.5513768  44.8683262  11.0649490
  28.4485888  43.6999464  11.4126313 110.3736115  19.1965950  29.3190718
 109.9115467  19.6145868  30.0457120 111.2532520  19.5730448  29.3463755
  63.9085627 102.2238255  75.9408236  63.1439543 101.9471455  75.4358053
  64.6550226 101.8636703  75.4619551  28.9071298  39.8823404  36.2363029
  28.5433340  40.7664251  36.1886191  29.1168427  39.7592497  37.1621013
  22.8420424  51.9036579  16.0718095  23.1427884  51.1629200  15.5454206
  22.3247838  51.5055990  16.7719686  99.0130329   3.3274540  88.6788750
  98.6446285   3.3934912  89.5598698  99.9430656   3.1509888  88.8207817
 112.4864197   3.0621824  23.0640674 112.7263165   3.5997331  22.3092675
 112.4088669   2.1755724  22.7117324  40.6145525  79.8587894  37.2293067
  41.5425825  79.9924135  37.0365953  40.3803158  79.0683603  36.7429018
  16.2524676  44.1059828  13.7056231  16.4066112  43.5401058  14.4620991
  16.4893234  44.9821472  14.0097058  14.8636293  49.0562677  48.0888319
  14.2718995  48.6875439  48.7446737  14.9133217  49.9868774  48.3073044
 107.0556450  26.4941144  55.7501650 108.0073452  26.5219951  55.6515646
 106.7535973  27.3307157  55.3964806  43.2204676  35.3116703  15.6625831
  43.2439995  35.9380102  14.9391353  43.3243275  34.4574690  15.2433181
 113.0608845  69.9560690   4.9514976 112.3006535  69.8985100   4.3727341
 112.7964401  69.4851971   5.7418031  48.6845636  66.8342113  82.4441528
  48.2826519  66.4278555  83.2119942  49.6171188  66.6356325  82.5286102
   9.9870938  56.3977194  17.1951127  10.6526077  57.0629120  17.0194936
  10.3359270  55.8991385  17.9340088   4.7143874  35.6694221  20.3074646
   4.8153365  36.5448689  19.9337852   4.3566704  35.1434731  19.5921683
  59.9661827  81.9989967  91.2096691  60.5327845  82.2540951  90.4815769
  59.4130373  81.3050365  90.8509445  25.1556897  49.1811085  52.4170685
  26.1038017  49.2693949  52.3194790  24.8121142  49.2944479  51.5308762
  36.6783690 102.1563816  60.2315187  37.3283672 102.4850273  60.8525896
  36.2919879 102.9445171  59.8497105   6.4128232  55.6586075  20.1674342
   6.0011691  55.4980803  21.0165548   7.0408744  56.3613081  20.3347635
  77.8860331  74.3745089  89.3954372  77.8634119  75.2943468  89.6592808
  78.7759066  74.0881300  89.6012020   4.8879400  46.2408829  30.5988193
   5.0808007  46.9408178  29.9750185   3.9667797  46.3689852  30.8252835
  56.8752384  81.3596344  87.2928429  56.4176512  80.9981441  88.0518913
  56.3033390  81.1609650  86.5514278  31.4170408  30.3307772  17.8453565
  32.0380688  30.0977421  18.5354638  30.6666970  29.7553658  17.9940748
  37.0491815  85.9372234  71.9008398  37.9463387  85.9549236  72.2340441
  37.1439552  85.7457256  70.9677887  23.2124686  44.4811106  48.2129383
  24.0471816  44.8715925  47.9540825  22.5657797  45.1674080  48.0485630
  42.0112038  77.6635981  81.4333630  42.2814322  78.5815525  81.4095592
  42.6519156  77.2400475  82.0046043 112.6603603  40.0276709   5.2959704
 113.0149555  39.1385865   5.3007239 112.8921986  40.3825855   6.1541766
   5.0630945  31.6795063  14.8526907   5.8620751  31.5207791  14.3500304
   4.3808544  31.2101960  14.3725586  73.9590406   0.9418783  82.3381805
  74.5960569   1.2695685  81.7033195  73.6548519   0.1138187  81.9666767
  91.2683105  34.9550247   2.4856542  90.8947563  34.1073108   2.7266243
  90.9977722  35.0863743   1.5769261 106.0159016  73.1394625  27.6586628
 106.5129471  73.9468241  27.5269485 106.6802692  72.4779987  27.8518248
 105.2973938  29.3428922  29.8364902 104.4797421  29.2600656  29.3457651
 105.9712219  29.0276909  29.2341304  95.7364941   1.4871025  79.0938377
  95.8400726   0.5800430  79.3814993  94.8245335   1.6989079  79.2930889
 100.4290199  22.9263282  89.0081692 100.5553913  22.2552299  88.3374310
 100.0327682  23.6612177  88.5400391  97.8215504  97.0163536  90.3263950
  97.7405357  96.2627792  89.7417545  98.7646580  97.1226788  90.4507923
  19.5761454  26.0210562  22.4473357  20.0332141  25.2281928  22.1668196
  19.0873504  25.7531214  23.2254887  39.3583608 100.2301788  73.5130596
  38.7571478  99.7040176  72.9858732  38.7900805 100.8253479  74.0019941
  52.8517771  34.1380024  17.7713072  52.0201826  34.5472765  17.5321889
  52.6068640  33.4242964  18.3602655  22.7746344  43.3358526  25.5828691
  23.5483789  43.8974237  25.6297016  22.0359397  43.9444971  25.5936503
  37.0345616  81.9662571  75.4457951  37.4392343  82.8252983  75.3252792
  37.4633980  81.4065552  74.7984505  98.7738800  15.8157444  82.1374512
  99.5068741  16.3128185  81.7743206  97.9954243  16.2324536  81.7678738
  77.0059013   3.7797514  80.0041676  77.1534681   4.2425466  79.1793823
  77.7920866   3.9552099  80.5212402  44.2257023  97.6346684  86.0080242
  44.5484495  97.3791027  85.1438713  44.0978384  96.8064308  86.4705181
 103.4371376  62.1459627   8.8781160 103.1652069  61.6024542   9.6176320
 102.8281498  61.9171190   8.1759787  44.9918890  21.5499258  21.2943745
  44.8258638  22.2197104  20.6310058  44.3068552  20.8967304  21.1519074
  46.5370035  96.5800858  65.1608515  47.0266581  97.3991108  65.2361250
  45.7264280  96.8257523  64.7149277  12.8449225  76.8912697  21.0091877
  12.1078062  77.4864531  20.8726335  13.5913706  77.4679041  21.1720943
  46.2488985  78.4327698  64.8022842  46.0616302  79.3694448  64.8639727
  47.1928263  78.3867455  64.6502304  55.9065723  68.5585833  77.9174852
  55.5523252  69.3545866  77.5211000  55.7664490  68.6760855  78.8570547
  89.0076828  77.9214525  85.2829361  89.8874187  78.0147266  84.9174309
  89.1524696  77.6514435  86.1897755 100.3618813   0.7353037  91.6700363
 100.1105213   0.8785354  92.5824738 101.1262321   1.2969097  91.5411854
 110.6811905  11.1894429  39.1061831 110.5960846  10.5703294  38.3811378
 111.3569260  11.8034494  38.8187718  27.2563767  25.6845498  21.0604286
  27.2333431  24.7753668  21.3589048  26.6238308  26.1361575  21.6191506
  36.3713312  44.7851658   6.2286347  36.1798882  44.0643549   6.8286467
  37.0268559  45.3107929   6.6871482  22.1232867  44.1559982   3.5932291
  21.3097835  43.7939930   3.9445108  21.8671370  44.5607471   2.7644965
  27.4717593  12.5711977   9.9804550  27.1546412  12.6713943   9.0828866
  27.9876900  13.3611465  10.1417792  29.9991488  87.4897671  88.3956051
  29.0500236  87.5522804  88.5027790  30.3165030  88.3799267  88.5476971
  49.7855979  97.2340853  92.9605716  49.9390715  98.1755907  92.8815565
  48.8618070  97.1223337  92.7361771  34.8328829  87.2661400   1.9872934
  35.6208158  86.9234848   1.5654194  34.5382333  86.5558720   2.5573146
  26.8429089  68.0013847  51.3313341  26.9331837  68.2808304  50.4202938
  26.5544224  67.0904303  51.2749767  24.7471642  78.9303875  18.9987075
  25.0381422  78.5954523  19.8468709  24.2098451  78.2267284  18.6348677
  74.7744083  74.4859314  88.9842606  75.7169628  74.5048714  88.8185501
  74.5668459  73.5565186  89.0809250  29.2455864  24.3085599   2.0137395
  29.8802567  23.5922360   2.0311695  29.5511699  24.9157596   2.6876533
  26.1123347  45.8253431  36.1758590  26.5924954  46.0800695  35.3879547
  25.4139233  46.4755344  36.2514114  36.5232635  97.4435806  74.3914557
  37.0104098  96.6210842  74.3422985  35.6040549  97.1806717  74.3449163
 108.3236122  67.8254223  12.4432838 108.8369083  67.2986603  11.8306863
 107.4321651  67.4863482  12.3621440  25.1969004  21.1319351   2.5170022
  25.7739162  21.8845987   2.3874505  24.5379686  21.2138247   1.8275568
  69.4771767  11.8168890  53.1465960  68.5235453  11.8327701  53.0656004
  69.6949005  10.8886743  53.2317257  75.8951998  94.6444511  78.8385487
  75.5703831  94.7463608  79.7331667  76.7963743  94.3395710  78.9442110
  62.0304966  69.2187071   8.4039015  62.0638800  69.3329906   7.4541348
  62.7020931  69.8120260   8.7402892  34.4826007  22.6300168   8.9205533
  35.4161000  22.5449705   8.7267053  34.3167615  21.9703484   9.5940262
  84.8779106  58.3546257  27.0017815  84.1776943  58.9102936  26.6594863
  85.6756687  58.8674545  26.8721080  50.7212749 107.5329514  53.5366011
  50.9013381 107.2628644  54.4370794  50.5673137 106.7132362  53.0669260
  31.0651708  93.7743664  51.6238642  31.2518883  94.4293308  52.2964668
  31.1167860  94.2568970  50.7987976  90.9184933  29.6932507  76.2319422
  90.5193520  29.5847607  75.3687286  90.1997185  29.9837351  76.7933798
  56.9736242  82.2066021  70.9594965  56.4676762  82.2098446  71.7720461
  57.8855896  82.2618675  71.2449741   2.0738120  42.9597521  48.0642033
   1.6377445  43.4283304  47.3525047   1.4451016  42.2885656  48.3296537
  58.0289936  19.4184291   2.6531339  58.2618761  18.6277425   2.1664998
  58.7728167  20.0069022   2.5240493  17.4135828  43.4460640  22.7785254
  16.9642317  43.1909752  23.5842824  17.1605837  42.7780008  22.1414089
  30.4611111  92.8861046  77.6246452  30.4662800  92.0265961  78.0458879
  29.8989153  93.4231186  78.1830215  33.9125490  51.5045643  23.1087422
  34.6195817  51.3392591  23.7324524  33.5882115  50.6340218  22.8781104
  85.1130390  39.5247173  19.2267621  85.9623146  39.0833139  19.2151666
  84.6258354  39.0883589  19.9256575  59.4901705   6.2061542  60.8148336
  59.2128897   6.3458812  61.7202759  60.3168392   6.6830420  60.7411957
  10.8745563  57.4117470  21.9353604  10.9567344  56.4642811  22.0439291
  10.2711070  57.6807451  22.6279807  48.5995531  15.4326665  11.9392681
  47.7663851  15.7109344  11.5589643  49.2632151  15.7873189  11.3476562
  28.2946205  17.4853230   9.6199125  27.9203796  18.1820011  10.1591861
  29.2398119  17.6299036   9.6639365 110.0007915  53.8525581   2.6623648
 109.4477940  53.1613922   3.0266759 109.9295998  53.7414932   1.7142990
   3.6031789  49.1715670  18.3186150   4.2440867  48.5705185  17.9388642
   4.0998951  49.6752405  18.9634538  67.2429037  57.7252340  90.1220798
  67.5714493  58.5814428  90.3963089  67.0647526  57.8253412  89.1869450
  32.3858476  76.0472918  74.1111279  32.1803021  75.3423691  74.7251892
  31.5337729  76.3370323  73.7851715  15.3337789  79.5461226  24.6163821
  15.7028794  79.2012072  25.4294181  14.4658339  79.1466188  24.5589447
  45.3754663  79.2249250  12.8482044  45.5318785  78.9473391  13.7508190
  46.0387897  79.8955679  12.6855075  31.2268758  41.9172382   3.1871781
  31.4150524  42.6741791   3.7420321  30.3286052  41.6737080   3.4108603
  72.6632071  95.6603241  84.2885780  72.5722885  95.5852222  85.2384853
  73.4717751  96.1572170  84.1638947  87.9318142  37.8087449   5.0418973
  87.5224972  37.8854012   5.9037626  87.4003220  37.1594930   4.5812201
  45.8253717  51.3401127   2.7427095  45.5180502  51.6086531   3.6085454
  46.1176157  50.4364443   2.8619254   4.3918329  39.4502044   2.1258754
   3.4863806  39.2250228   2.3396064   4.8272803  39.5234704   2.9751396
  96.1659718  84.6972084  86.7362690  96.6271305  84.3054390  85.9945869
  95.8060074  85.5138397  86.3901997  33.6519098  95.7978153  89.0458488
  33.1105947  95.3916931  88.3688927  33.6760402  96.7249393  88.8090134
  51.0521650 105.1103878  69.6234035  50.3374147 105.2071190  70.2526951
  51.0941505 105.9559822  69.1768074  26.8370605  45.3667021   8.0573064
  26.8798757  45.9777927   8.7928092  27.0265698  44.5121145   8.4446019
  11.2337458  62.1017933  35.4642677  12.0004725  62.6018572  35.7440877
  10.7540274  62.6996613  34.8909807 110.2624989  39.2732954   4.0341869
 111.0624504  39.6361971   4.4144589 110.3811741  39.3700409   3.0893129
 108.5946751   8.7636203  23.1592178 109.5258713   8.9669091  23.2474494
 108.2978725   8.6064065  24.0555549  64.5788908  29.5120335  70.5105877
  64.3167162  28.7828374  69.9486542  64.9911833  29.0951467  71.2671900
  21.3224363  65.6690025  12.3492527  21.8252945  65.3949738  11.5822613
  21.4139366  66.6216373  12.3677957   0.1438665  29.3264079  12.5744164
   0.9148638  28.7699890  12.4639916  -0.5944683  28.7173128  12.5646234
  49.4332457  33.7885761   2.0342155  49.3858671  34.6896935   2.3535508
  50.2150440  33.4272432   2.4519017  12.2964001  10.1571524  47.3413324
  12.8166080  10.0089431  46.5516186  11.4464831   9.7626299  47.1458197
  64.0536833   4.2078429  88.3713913  63.7114668   5.0920123  88.2396317
  63.2795668   3.6453521  88.3474255  62.5029516   2.6935384  91.0052586
  62.6698494   1.9093180  90.4824066  61.5947676   2.6007327  91.2930489
  12.6939368  57.8357267   3.8431129  12.4628615  57.2347736   3.1348073
  13.2817471  58.4717274   3.4354192  31.1299253  52.2217512   4.4741178
  31.8846416  51.7618370   4.8416921  31.0845590  53.0404711   4.9679530
  61.6773272  91.2964821  86.4650059  62.6164961  91.1132336  86.4898014
  61.2734938  90.5339622  86.8793964  29.7846532 100.3495979  86.9029808
  28.9545417  99.8953915  87.0473576  30.1581526  99.9260521  86.1301041
  30.4926538  35.9000921  14.6661639  31.1655021  35.5683446  14.0716457
  30.4737306  35.2668595  15.3837228  15.2551639  26.6782761  16.6529894
  15.2955043  25.9136844  16.0785294  14.6619391  27.2823429  16.2064230
  38.4710360  89.7181606  79.6254873  38.0894065  88.9154720  79.9808407
  38.9253044  90.1164818  80.3679180 111.9940567  54.6160269  10.9830141
 111.2404823  54.5818329  10.3937948 112.2465801  55.5392313  10.9955692
 102.6161289  46.9250154  24.5291829 103.0605888  46.6433811  23.7295771
 103.2334137  46.7196608  25.2313423  17.6673055  53.1424379  37.6535964
  17.4653542  54.0488911  37.4216723  17.2109056  52.6192427  36.9946623
   6.8987322  64.4143343  28.3713388   7.2775221  63.6094093  28.7246656
   6.0057509  64.4300795  28.7156749  27.0918298  22.9006314   5.5043411
  26.2808704  23.3830476   5.3435618  26.9628382  22.4941635   6.3612992
  40.4673910  30.0784898  12.8678906  39.7997117  29.3926716  12.8772783
  41.2693691  29.6358109  13.1455612  28.7588692  43.6951590  24.1841412
  27.9932547  43.3869028  23.6993289  28.3964705  44.0979338  24.9732351
 107.7062416  26.0222507  15.2564299 106.8254852  25.6541848  15.3273261
 107.5884628  26.9582129  15.4187143  14.5158446  53.4526873   2.0981133
  14.3889880  52.8031206   2.7896348  15.4629731  53.5876703   2.0671189
  37.7100706  30.2262068   4.5755219  38.0156779  31.0808325   4.2714646
  38.0374455  29.6083236   3.9218584   4.9660388  58.1993341   6.1702031
   4.1478968  58.5036707   6.5629566   5.4275429  57.7627087   6.8861663
  12.7852261  92.1881771  85.2786350  13.4545887  92.7418423  85.6806850
  13.2801926  91.5293598  84.7916126 111.1856651  62.1115398  28.9098835
 111.6021156  62.1339273  29.7714520 110.3138256  62.4787903  29.0556574
  18.4094203 104.2494583  85.6016636  19.1451216 104.3515015  84.9978733
  18.0693769 105.1367569  85.7170010  22.5676441  53.9114332  29.1873789
  21.7104793  53.9882946  28.7683415  22.6274967  52.9910088  29.4432330
 110.0454235  37.0018530  21.7788577 109.5481205  37.3619103  21.0445023
 109.8484707  37.5862193  22.5109482  28.9100099  42.6859665  13.9888966
  28.5202360  43.4954405  13.6586583  28.9062524  42.7891636  14.9405098
  34.4581633  87.8432567  92.5147375  34.6113044  88.7095387  92.1374665
  35.1761847  87.7222616  93.1360553  20.4346633  74.4815922  12.0150757
  21.0046530  74.2725754  11.2750375  20.0588822  75.3339195  11.7947042
   0.6949104  47.7132559  32.3824835   0.5249739  46.7713499  32.3696256
   1.5842772  47.8008795  32.0395827  90.6581211  12.1873426  68.6400318
  91.4158535  11.6254950  68.4775591  91.0320950  13.0543995  68.7968445
  22.8589606  78.6069202  81.1557484  22.5694966  77.7173901  80.9528255
  22.0535803  79.1240883  81.1673450  76.7091751  26.5914345  86.6469097
  76.2580824  27.3959398  86.9028759  76.2680864  26.3146806  85.8437443
  60.7703066  70.8193350  72.5827789  59.9401331  70.7545662  73.0548477
  60.6436872  70.2820969  71.8007469   7.3833841  63.3419418  22.2365522
   6.6517073  63.2871103  22.8512669   7.1957183  64.1186237  21.7095041
  57.5092697  94.8612022  70.5637264  57.9405022  94.1326332  70.1171112
  56.6780472  94.9674606  70.1011133  74.6467400  31.6602087  76.4078426
  74.2383385  30.8453465  76.7001438  73.9386415  32.3039389  76.4287138
  85.1622868  18.4607661  57.5664616  85.0369549  17.5149715  57.6438904
  85.0699615  18.7886345  58.4610081  45.2648211  92.0089912  83.6355114
  45.7100248  92.2880745  82.8354263  44.9671507  92.8235817  84.0405655
  38.4035659  30.8073258  37.7131271  39.2505932  30.3623247  37.6857901
  37.9396772  30.4870629  36.9395185  38.3340454  46.5874720   4.2373225
  37.7505779  46.1276293   4.8409298  38.4698915  45.9701395   3.5185200
  -0.2933932  33.5860538   4.5482183   0.4678488  33.5314751   5.1259500
  -0.0213862  34.1806746   3.8491675  36.3020205  95.8943462  89.9082756
  36.4608383  96.5354443  90.6011009  35.3799438  96.0119820  89.6798801
  10.3449953  26.2241197   7.6128793  11.2824607  26.3174462   7.4435300
  10.2975714  25.7421398   8.4385175 108.9184284  98.4189892  70.8684969
 109.3064308  98.3481503  71.7406607 108.3223152  99.1652584  70.9314442
 109.7681141  54.6577930   9.1832381 109.1068172  55.1766634   9.6411616
 109.6491814  54.8794365   8.2596803  83.0024052  21.5795565  83.7318611
  83.8145351  21.3199806  84.1669464  83.2886696  22.0982981  82.9800701
  93.4742832  72.9134369  20.0243139  93.4936047  73.4378004  19.2237484
  92.6264000  73.1132126  20.4210711  45.3484583  31.0089135  13.2457173
  46.1729717  31.3563967  12.9056144  44.9407291  31.7519689  13.6905241
  20.2994180  53.0282927   4.0578529  20.2732992  52.2514391   4.6164641
  19.4597137  53.4615946   4.2107654 113.2718849  40.7892752   8.2234335
 113.0869675  40.3697538   9.0636951 113.2191277  41.7271805   8.4072518
  75.1229525  71.2423706  86.8606186  74.5881271  71.5002728  87.6114082
  75.8264875  71.8908691  86.8336582 107.0553684  19.9624014  10.2890801
 106.2303448  20.3951669  10.5088151 107.4389076  20.5111647   9.6049839
  45.2485943  79.3774176   3.7968668  45.5052137  79.0900946   2.9206112
  45.2786970  80.3331757   3.7539265  16.1705267   7.0848674  84.6578598
  16.9726694   7.5628221  84.4472408  16.4749300   6.2731123  85.0636005
 112.3468971  27.9323268  52.6122141 113.2056904  27.9293060  53.0349398
 112.2807789  28.7985802  52.2103882  25.2052259  55.7287836  32.5617146
  25.4616356  55.0983906  33.2348347  24.2488027  55.7421064  32.5979257
  20.0174141  89.5778084  90.5721951  20.6570864  89.2063522  89.9646854
  19.3882251  88.8715267  90.7189178 111.2609482  50.7384872  15.6028259
 111.3668060  51.6255140  15.2590013 111.0653782  50.8633280  16.5314794
  58.4883928  92.9320335  62.6756001  59.1899920  93.4336662  63.0907488
  58.0833769  93.5473156  62.0643616 105.5455112  68.0247402  84.3300533
 105.6142712  68.4480238  83.4742832 104.9794292  67.2679663  84.1781521
  38.4119606  60.6520176  24.5037723  39.1313982  60.6105566  25.1337910
  38.7227321  60.1478195  23.7518167  24.2723298  78.6706829  89.2728424
  24.1561174  79.6002817  89.4692326  23.4681749  78.4195280  88.8184261
  20.5310416  30.8311582  17.1170640  19.7560167  31.3030076  17.4219036
  21.2676072  31.3079095  17.4996984  11.3679707   1.3525438  90.4533100
  10.5810857   1.4256082  89.9132156  11.8090463   0.5673818  90.1289558
  51.8887138  90.5136299  86.9652367  52.8422356  90.4588604  86.9017696
  51.7032099  91.4525700  86.9802570  93.1493568  92.6642513  83.7416935
  92.6359367  92.8234673  82.9496861  92.6165581  93.0268192  84.4494438
  14.7496963  58.4058666  36.0485888  14.5528340  59.1068172  35.4271841
  15.7010281  58.3087301  36.0065722   1.4705724  52.8340054   5.4408634
   0.9049545  52.9028320   4.6717262   1.9918899  53.6366749   5.4273897
  54.8526049  96.2009621  83.5380840  55.6771374  96.6867542  83.5184383
  54.3213797  96.6570663  84.1907787 112.9572296  31.1001158   6.7184770
 112.9326725  32.0446897   6.8714750 113.8896275  30.8903170   6.6649783
  47.1059513  93.1753731  24.6653628  46.6016006  93.8587856  25.1067281
  46.7148161  92.3558235  24.9679899   5.3017384  59.9900484  11.9323361
   5.5016065  60.1774740  12.8494811   5.1714182  59.0421724  11.9044733
  73.1595087   7.5934428  75.6057644  73.7802315   7.7078044  76.3253880
  73.4525776   6.7982650  75.1607561  14.6234357  65.2552176  68.0664301
  13.6805165  65.1660156  68.2049131  14.8697174  66.0229492  68.5823393
  31.0112286  18.5553169  25.5689502  31.2010264  17.9129267  26.2527204
  30.0564766  18.6234546  25.5626893   5.2409095  21.1408377  71.9409180
   4.8572993  21.1607909  71.0641766   4.5449281  20.7939291  72.4990320
   5.1495492  75.8478642   4.6849754   4.2702383  75.5478954   4.4546163
   5.5183637  75.1327991   5.2035230  68.2804680  12.9409170  81.1531067
  67.3442602  13.1384265  81.1801815  68.3323812  12.0843613  80.7290173
  33.3047628  32.9486823  38.4831929  32.8411484  32.1311235  38.3018351
  34.0333033  32.9536867  37.8623605  19.2040026  48.6955738   8.0799377
  19.9168384  48.5990810   8.7114334  18.5017276  49.1183329   8.5742205
 110.3275871  46.6130781  15.1546979 111.0122967  46.2254429  14.6095920
 110.1267719  47.4470568  14.7299755  26.4165783  36.1424971  16.3652229
  26.4987326  36.9804287  15.9098625  26.2878275  35.5015612  15.6660414
  42.1603155  30.1585031   2.5254080  42.9924774  29.9295783   2.1114820
  41.4944458  29.7958231   1.9411895   3.8054895  67.9548454  15.6040692
   4.7326398  68.1915665  15.6283128   3.3549485  68.7128210  15.9765089
  57.2559261  95.0764370  85.4909039  57.7673388  95.8312416  85.7823849
  56.5319395  95.4556561  84.9926281 111.1947632  43.2525301  13.3437133
 111.8127537  42.7266216  13.8513851 110.4564857  42.6650620  13.1822586
  27.5248313  30.9897208  19.5651507  27.3354268  31.3923526  18.7176573
  28.3850956  31.3330960  19.8065400  24.3097091  54.5154047  17.6398277
  24.6768045  53.9196396  18.2929277  23.3749962  54.3095827  17.6264262
 110.9890175  74.9325609   3.7288171 111.1493969  74.0191221   3.9657670
 110.1736927  74.9104309   3.2278287  72.4710560   6.5769649  72.1654940
  71.7351341   5.9897327  72.3381472  73.2453156   6.0671943  72.4040079
  79.1737556  77.3459196  67.1448946  78.6653805  76.5788746  66.8814087
  78.5273266  77.9449081  67.5184965   9.4659072  98.9505989  92.8487746
  10.1740390  98.9247019  92.2052599   9.7541838  98.3615047  93.5459758
 112.5268173  59.9194384   4.6129128 111.8957138  59.9123240   3.8932693
 112.0102024  59.6947479   5.3867686  35.5335307  41.8675995  19.3100107
  35.1579022  42.7399397  19.4289994  35.4818845  41.7111635  18.3670938
   6.5675551  98.7278080  29.2257524   7.1088910  98.6353779  30.0097442
   6.7035580  99.6330929  28.9461446  15.2951002 100.4941463  24.4920111
  15.0420380  99.6956158  24.0288234  15.0643957 100.3245640  25.4053831
 103.8165474  14.3368971  78.1984806 104.2396450  13.4789765  78.2330179
 104.0200424  14.6692836  77.3242140   4.2278054  53.8098145   0.9538617
   4.8617560  53.9539337   0.2513178   4.2716321  54.6061850   1.4831069
 113.1874275  25.4667974   9.0324640 112.4547577  25.1538301   8.5019159
 113.1102657  24.9844790   9.8556572  65.3161001  98.3859539  84.1026688
  65.2527952  99.3150425  83.8812733  64.4358683  98.0426407  83.9491844
 112.5234127  62.9694271  31.6281652 112.1754169  63.3020878  32.4554896
 113.4554195  63.1857920  31.6560888  98.7394714  95.9032345  79.9682045
  98.3909512  95.3865337  80.6946945  99.1166496  95.2554989  79.3728828
  93.3927822   9.2158353  54.0409756  93.4228420   9.4690931  53.1183767
  93.9345455   9.8674989  54.4860077   7.4686331  40.6848764  23.4081435
   8.2462990  40.1466036  23.5555530   6.8741578  40.1175117  22.9173017
  95.1887131   4.2115355  84.8048687  95.8090687   4.2563736  85.5324554
  95.0225163   3.2760066  84.6891308 100.9368801  31.4469433  82.2116184
 100.8331966  32.1127057  81.5317345 101.5711021  31.8240356  82.8213692
  38.5414886   6.8549168   1.3953397  38.6429811   5.9755540   1.7595540
  37.7846479   6.7871851   0.8132438  32.9240823 101.1883736  65.8975792
  32.4004698 100.5573654  65.4037285  33.8242722 100.8759689  65.8065557
  87.2242069  21.8712592  91.6200447  86.5598297  22.3623610  92.1034241
  87.7633095  21.4654970  92.2989750  16.1129737  13.5224640  88.0456448
  16.7699826  14.2172754  88.0881786  16.6110659  12.7140951  88.1667900
  25.3627491  72.5558949  26.8420362  24.6147180  71.9594336  26.8118525
  25.1721120  73.1422901  27.5741816  36.7410779  79.3170595  10.3303385
  36.6645932  78.3723497  10.1965261  37.3670483  79.4072866  11.0488439
  20.9951663  32.4332905  12.0160568  20.5747581  32.2170091  11.1837637
  20.6699538  31.7725229  12.6274931  71.6534615   5.1647174  87.1356964
  71.5454817   5.5453312  88.0073071  71.6084909   5.9129143  86.5403748
   6.9171584  39.9669099  67.6547337   5.9879345  39.8828506  67.8685284
   6.9452327  39.9507785  66.6980791  34.3582153  78.0146122  89.4453335
  33.5428190  78.0575657  89.9448490  34.4094062  77.1061945  89.1480446
   6.9890875  61.5836716   8.4496242   6.4652550  61.6965389   7.6564711
   6.3535279  61.6243601   9.1642153  52.6878929  11.6354132  71.9819832
  52.0929003  10.9185517  71.7621469  52.4037170  12.3613989  71.4266253
  93.9224052  85.2670097  63.2406139  94.5956802  84.9490833  63.8421679
  94.4075298  85.7511520  62.5724125  62.8032875  88.5083485  88.8378429
  62.1032143  87.9094982  89.0976620  62.5805521  89.3362522  89.2635059
  56.2450552 105.8252621  53.3232069  56.6418743 105.1798534  53.9081955
  56.8828869 106.5379620  53.2849503  40.7764053  90.5165482  71.7040110
  41.4154243  89.9842548  72.1778822  41.2985706  91.0133553  71.0741234
  30.0473189  28.3130550  27.8621149  29.6315193  27.7284050  27.2284532
  29.3803310  28.4504986  28.5347748  28.8002992  52.5484514  24.6676040
  28.5720086  53.4730577  24.5715976  27.9758883  52.1210480  24.8997808
  59.5806646 104.4019127  73.7796831  60.2023602 103.9374542  73.2193184
  60.0707340 104.5841694  74.5814562  31.0849500  63.5312891  16.3655972
  32.0272422  63.5337448  16.1973381  30.6864738  63.4949160  15.4960430
  50.2275753  78.0853319  85.7726955  50.3852558  77.1435308  85.7064819
  50.7635069  78.3663464  86.5143394  29.2881131 104.0439510  82.1345520
  28.5407448 104.2763805  81.5835094  29.0859389 103.1645203  82.4538612
  62.8350258  91.8242550  73.7685728  63.4380817  92.5633335  73.8480043
  63.3537865  91.0628700  74.0281963  26.5181351  94.1183853  86.3979340
  27.0694041  93.5957336  85.8155537  26.1287355  94.7814751  85.8279324
  91.9800854  46.1472511   7.8712219  91.4046192  46.8819857   8.0839145
  92.8297710  46.5515327   7.6956767  98.6199856  63.0679893   2.4819104
  99.3737221  62.7328348   1.9963366  97.9410553  63.1873417   1.8178001
  15.5529273  24.5803547  14.6558487  15.6047630  23.6751151  14.9625838
  15.3168845  24.5067644  13.7311327   1.1204953  49.6449900  12.1129847
   0.1732502  49.6091080  12.2459161   1.4431597  50.1860762  12.8336406
  96.2305546   7.1945059  63.4242678  96.1484432   7.2212702  64.3775654
  95.9403324   6.3147187  63.1834793  71.1900377  29.0957499  89.9211693
  70.5709743  29.2930603  89.2182827  71.6627550  29.9161959  90.0613117
   2.9716069   5.1141930  57.8495073   2.1739264   4.5967552  57.7390718
   3.1753823   5.4309356  56.9695139  58.2283449  27.7499986  26.2629509
  59.1663885  27.9252529  26.1881828  57.8793764  27.9379630  25.3916740
  62.4994326  79.5670319  83.7659836  61.9930840  78.8056183  83.4829807
  62.2303677  80.2678108  83.1720638  32.1086287  80.9592915  87.4110413
  31.5419078  80.8253384  88.1707191  31.9633508  81.8719769  87.1617985
  61.1724520  38.9992666  26.5864944  60.5002069  39.3990755  27.1382809
  61.1163902  38.0636382  26.7806339  16.0824394  59.1029215  70.1912498
  15.7089293  58.5310650  69.5206499  16.0515702  58.5825586  70.9940577
  31.2107158  17.4946451   1.6175315  31.6615629  17.0550442   2.3384462
  30.4970026  17.9740906   2.0382196  40.4257202  86.2291908  89.6587276
  39.7756290  85.9754753  89.0035629  41.1975098  85.7044601  89.4460583
  85.5639172   5.4775757  80.1448250  84.8906326   5.7046574  79.5034599
  86.3911247   5.6410027  79.6917820  81.6584396  94.1953850  90.2031040
  80.7410622  94.4212627  90.0493622  81.8518162  93.5219193  89.5509720
  59.9125385  26.4972663  84.7314453  59.8738718  25.5461073  84.6312904
  60.8386707  26.6845298  84.8845482  20.4172230  66.3432264  19.3892765
  19.9501646  67.0529509  19.8301637  19.9539244  66.2309456  18.5592282
  95.8284092   1.7577314  89.9915218  96.5929985   2.3093741  90.1567841
  95.1297379   2.3752765  89.7753239   2.8964481  88.4938240  84.1669655
   2.9089519  89.1975880  84.8156452   1.9683565  88.3647346  83.9714813
  10.0266373  59.5253658   4.7215620  10.4750752  59.4021559   3.8849291
  10.0966060  60.4641485   4.8948395  14.4215310  48.6152506  21.4192963
  14.1152489  48.0137634  20.7405925  14.6347368  49.4202995  20.9474182
  21.5091228  48.3783913  25.6346989  20.8075333  49.0175390  25.5102205
  21.6730547  48.0290413  24.7587371  22.2823215  43.6302042   8.5887253
  22.8856969  43.6072159   7.8460002  21.8893743  44.5022202   8.5511845
  57.4099636 104.2775631  69.7149277  58.2044172 103.7438583  69.6997643
  57.3729753 104.6267700  70.6053877  56.0692310  52.4581766   0.8034951
  55.5998230  52.8174210   0.0506126  55.4123402  51.9428778   1.2716788
  88.8695812  34.1263103  83.8325596  89.0106487  34.0582848  82.8882599
  88.3385277  34.9155188  83.9391613  88.6624050   9.6117365  79.4021273
  88.3484936   9.3183124  80.2574635  87.8904438   9.9889159  78.9801741
  55.6916809 101.8238544  64.2566252  56.4424849 102.2564507  64.6632910
  55.9206629 100.8944511  64.2587852  33.4768128  51.5995216  13.5345435
  34.1442847  51.1954498  12.9800701  32.7981210  50.9298420  13.6190403
   8.2317680 105.6867504  82.7613258   8.2614756 104.7506523  82.5636578
   8.1257588 106.1083698  81.9085503  53.6080790  49.2549610   5.0874072
  54.2501879  48.5680342   4.9083591  54.0503979  49.8424673   5.7001233
  24.1857028  77.9733562   8.9101553  23.4291792  77.3882246   8.8711029
  24.4949293  77.9050779   9.8134542  93.6005783  74.0388346  66.3529873
  94.0559196  73.2055807  66.2322426  94.1663837  74.5377970  66.9421625
  23.0975533  83.1163406  25.0670695  22.8352523  83.5348511  25.8869958
  23.7832880  82.4990463  25.3219151  11.9932520  30.5646467  75.9501505
  11.1295712  30.6085896  76.3604641  11.8201828  30.6753230  75.0152540
   9.9101543   4.1798642  85.5538368  10.8313012   4.2664781  85.3084469
   9.8851180   4.4219905  86.4795685  32.8192067  72.4893713  25.3467369
  33.0338359  73.4014034  25.1508808  32.3816419  72.5236416  26.1973810
  13.9249802  10.8624113  75.9498787  14.6914089  10.8741224  75.3765726
  13.4615254  11.6749382  75.7467937 106.9454193  81.6556549  54.6676111
 106.1329460  81.7675400  55.1611710 107.5473118  81.2434959  55.2873516
  59.6117053  70.3335639  -0.0829783  58.7700829  70.2823385  -0.5360499
  59.3938884  70.6574770   0.7910261  69.0175056  20.5772781  88.9351082
  69.0574217  21.4266753  88.4956074  68.1945181  20.5987144  89.4234371
  70.5142212  78.1937313  88.7590122  70.8228254  78.3708000  89.6476364
  69.7385645  78.7458706  88.6603737  13.6874640  37.5718093  54.4673729
  13.8700867  38.2774711  53.8469505  12.7398086  37.6066852  54.5976162
 112.1215725   1.3554192  78.1690264 112.6190376   1.2154601  78.9747429
 112.6212025   0.8935361  77.4957752  89.4278240 103.8304710  77.3733568
  88.8415241 103.2594585  76.8769360  89.0183258 104.6943092  77.3251963
  93.3968925  98.4354782  73.1831264  92.9498100  98.9586735  72.5178385
  92.9059410  98.6011600  73.9879560  67.9716158  91.3369942  83.6341953
  67.9114771  90.7055569  84.3510628  68.7296820  91.8782330  83.8547230
  27.8621578  11.7355728  66.9663143  28.1453800  12.6332045  66.7923212
  26.9906354  11.8296790  67.3507977  40.2749443  67.1611881  10.2983618
  40.2930737  67.0081758  11.2430787  39.6358013  67.8641462  10.1818061
  57.1016884  81.4266872  77.9927731  57.5289917  82.0577431  78.5719156
  57.1146727  81.8447495  77.1317911  84.4241714  97.2957039  65.7251358
  84.5957470  96.6366386  65.0524998  83.4722614  97.2932816  65.8255434
  30.3460956  34.3637705  72.2949266  29.6868157  35.0034285  72.0258236
  30.9972596  34.3814349  71.5935707 100.5764389  43.6842585  79.5563602
 100.1991749  43.5085201  80.4183483 101.5166283  43.7628937  79.7179127
 102.6360703  40.8404970  81.7659664 102.9514313  41.2091923  82.5910950
 103.1727982  41.2618589  81.0946941  12.9557765  20.3449202  65.1493979
  13.4477305  21.0361338  64.7061872  13.5659230  19.9954295  65.7988691
  14.4416654  23.7293720  44.8815250  15.3801703  23.5439897  44.9142838
  14.3576264  24.6066308  45.2551413 107.3994827  19.0205574  28.1898046
 107.9921246  19.7116184  27.8941131 107.4207401  19.0792680  29.1449642
  95.0574875  89.6088791  74.6153641  95.5237389  89.6247578  73.7795448
  95.0868702  88.6919880  74.8886347  13.2962370  42.5965309  61.2983370
  13.0800676  41.6659451  61.3575983  12.7428389  43.0135012  61.9587326
  19.2204082  29.3305945  81.7095566  18.3540678  29.0631914  81.4026642
  19.6000898  28.5335040  82.0793056  13.5144258  44.6317959  83.2387257
  14.2552686  44.0944386  83.5191345  12.7454996  44.1792440  83.5853958
  40.8521414  43.3908653  70.7358456  41.8009949  43.4967804  70.6673145
  40.7350302  42.6913834  71.3786793  49.6116018  74.2276001   0.2899329
  50.3934002  74.6796703   0.6071854  49.4845057  74.5630455  -0.5975105
  81.3691044  86.4463902  72.0358849  81.4886093  87.1326351  71.3793564
  82.2544098  86.2533474  72.3444462  20.4646564  23.0154347  70.4883385
  20.8977985  23.3047771  71.2913942  21.0360765  23.3219147  69.7842216
  38.8005090  77.3285580  17.7337134  39.1198158  77.5875044  18.5981321
  37.9472184  76.9293451  17.9032803  -0.1115656  11.2755358  90.7732010
  -0.5099058  11.9211686  90.1894855   0.8292913  11.3624954  90.6200790
  98.1107426  89.9705410  12.0865357  98.3598042  89.0744686  12.3129177
  97.3939800  90.1785851  12.6858711 109.4571400 100.9619236  75.4010296
 108.9497280 101.1100197  76.1990452 110.3587151 101.1666489  75.6490088
  87.6696301 103.8697529  68.3811665  87.1604824 103.1406403  68.0270481
  88.5606861 103.7139893  68.0681467  78.2402658 102.8638172  83.8713169
  78.6022902 103.6027908  83.3823395  77.3423767 102.7809334  83.5501480
  68.7370920  62.1679974   4.6803039  68.6495018  62.5679731   5.5455089
  67.8540516  61.8681192   4.4645587  97.4695206  36.1925817  63.4387207
  97.1455479  37.0231795  63.0903196  98.3591557  36.1186671  63.0932999
  57.2946835  19.4103932  84.1745090  56.7421627  19.7688091  83.4798908
  57.5597048  18.5498607  83.8497353   9.2303038  44.4780874  63.4585142
   8.5407662  44.5594025  64.1174221   9.6462023  45.3400040  63.4394360
  57.5030136  30.0386786  68.2453775  58.1274366  30.3760409  68.8876534
  57.3325872  29.1396523  68.5263395  61.7695045  96.6686344   2.5291765
  60.9276772  97.0103645   2.8304663  61.7987537  96.8903732   1.5984723
 105.9630299  12.1694422  78.2298660 105.7666874  11.2648106  77.9863024
 106.7477417  12.3879147  77.7271366  10.0993192  11.5253472  74.3248224
   9.3823242  12.0755923  74.6400690  10.3193045  10.9677804  75.0711203
 108.7870598  16.9023705  86.1051559 108.1791019  16.2813914  85.7038879
 109.1201973  17.4193561  85.3716946  95.4300880  46.0898304  55.2945948
  95.1559258  45.3191137  54.7975492  96.1553288  45.7796097  55.8368349
  26.7947245  17.9253173  81.6835403  27.7040577  17.6327658  81.7448425
  26.3068485  17.1403348  81.4345169  14.8419499  14.8390782  91.3318443
  14.7005880  14.0005255  90.8924389  14.3501055  14.7667670  92.1498299
  77.7281332  66.1368513   3.5877466  78.6376524  66.4120436   3.4725437
  77.2372913  66.9555759   3.6583975  10.0070345  33.1132936  58.6491346
   9.4818717  33.3675528  59.4079447   9.3788421  32.7180076  58.0446911
 101.9389343  75.2042007  11.0995114 101.5144539  74.3599319  11.2520015
 102.1590233  75.1968431  10.1679873  67.9006720  43.6722565  10.0914276
  68.1538010  43.6491203   9.1685927  68.1636715  44.5427799  10.3901708
  82.9428482  44.4416618   1.3673967  83.5913372  44.8751974   0.8126509
  82.6021671  43.7296104   0.8259562  72.4456215  57.7778578   9.9543375
  71.9917870  58.6178780  10.0224006  72.2658110  57.3403597  10.7865024
  14.6142864  17.6362765  79.4738865  14.4557023  18.3675098  80.0708580
  13.8350570  17.6069677  78.9187479   4.4036591  11.0404158  39.7291112
   4.2256415  11.7901123  40.2969980   4.5177209  11.4212680  38.8583779
  15.4824758  40.4898691  70.5430889  15.4291260  40.4133177  71.4957333
  14.7611487  39.9507070  70.2187109  54.3052816  38.2754254  57.1789885
  54.6591282  39.0487003  56.7395878  53.9648294  37.7312517  56.4689159
  60.5302477   3.3137867  65.6043386  59.6824932   3.1799084  66.0281563
  60.6354189   2.5527579  65.0333691  89.4104671  74.9169064   2.4019694
  90.2894211  75.1935720   2.1428844  88.9059162  74.9295616   1.5886453
  84.3719673 102.0853901  25.5333734  84.1017437 102.9055023  25.1203108
  83.6918640 101.9091892  26.1834764  22.6803136  49.5910263  81.3970566
  21.8771982  49.4733286  81.9043922  22.5561213  50.4237938  80.9417534
  68.1611204  81.4168549   2.7770340  67.4636984  80.9187984   3.2033786
  68.4027147  80.8879852   2.0166668  79.2569256  89.0588665  71.3325500
  78.7574482  88.3689404  71.7693090  78.8357401  89.1553783  70.4784298
   2.7059484  54.7448730  34.8212385   2.7725878  53.7913799  34.7698498
   3.2766894  54.9858809  35.5508995  17.8214180  87.4297047   7.7210784
  18.5577917  87.1748924   7.1651471  17.6131344  88.3231831   7.4480575
  52.6846933  63.0110025  21.8638349  52.4291563  62.1859550  22.2764206
  52.5151539  63.6753845  22.5317287  18.2287657   4.3690401  75.3849888
  17.7874970   4.3546000  76.2342834  18.0246687   5.2316087  75.0236702
  18.2977843  16.1509085  71.8055439  19.1134501  16.3780499  71.3590813
  18.2130575  16.8065226  72.4978018  65.9071684  28.7662673  91.3955021
  66.1124468  29.6971297  91.4826298  66.6074753  28.4171462  90.8442116
  57.2747612  31.5017414  73.0066013  57.3757362  30.7699275  72.3979282
  57.9404879  31.3490915  73.6772299  42.9438686  45.0909472  83.3534908
  43.3642673  45.6726980  83.9867783  43.6140251  44.9376488  82.6874352
  41.3999224  32.1468449  77.4875259  41.3281012  32.5423312  76.6188145
  40.8701897  32.7101731  78.0516863  12.1903539  40.4619122  84.9116421
  11.6307092  41.1739063  84.6016598  12.3407781  39.9207115  84.1365910
  62.4647141  23.1394577  88.7640476  62.2580910  22.6541543  89.5628071
  62.7968597  22.4756718  88.1596470  29.1180420  47.9375601  44.0567732
  28.6164427  48.7091303  43.7935066  29.0425706  47.9168701  45.0107718
  29.4591141  31.1096716  83.2466507  30.0920200  31.3257051  82.5618267
  28.7677526  31.7644405  83.1490326  49.1990089  22.4305296  75.1522875
  48.8128519  22.0747495  75.9526205  49.0938234  21.7331815  74.5050812
  63.5791302  94.8194218  27.8779340  63.9209127  95.4954910  28.4630370
  64.3358183  94.5470142  27.3588514  15.4523730  30.6876421  84.4247055
  15.6022096  29.9033689  83.8967896  16.3269937  30.9604907  84.7018814
  18.4505093  34.4456768  79.1317272  19.2438173  34.8644209  78.7977409
  18.6825502  33.5202527  79.2090511  66.2056303 105.3717995   9.0592837
  65.6097412 104.7782040   8.6023438  65.8709669 106.2464428   8.8612193
  50.0349903  38.4030104  56.8172169  49.7626400  38.9619470  57.5449848
  50.0121880  38.9778447  56.0521841  15.7598031  28.5023999  83.1587601
  15.2081811  28.3586979  82.3898029  16.6450536  28.2928443  82.8610229
  62.9640102  70.3833437   5.5846643  62.4374199  69.9637461   4.9043179
  63.8237000  69.9687624   5.5119270  10.5692756  34.1352820  73.1934929
  10.2635670  34.2119741  72.2896719  10.1723826  33.3248115  73.5126209
  34.4314480  66.3128805  38.8633370  33.8525796  65.7879305  39.4161201
  34.5275807  67.1402550  39.3349791   0.1280165  14.2373574  16.9136524
   0.2299356  13.3062768  16.7163420  -0.2752066  14.6060073  16.1276853
   5.9037662  75.8895826   1.8593667   5.5049777  76.1107826   2.7009544
   5.1670313  75.6302595   1.3060082  28.9646864  52.6740789  69.6848726
  28.3432841  52.4635506  68.9879036  28.4184504  52.8156805  70.4580545
 104.5156097  29.4864011  90.6981182 105.4041195  29.2455173  90.9603310
 103.9525700  28.8675165  91.1630917  34.2590141  12.0243609  81.5264034
  34.9870801  11.8063509  82.1083164  33.5734534  12.3473132  82.1111584
  75.8173513  82.9444885  22.3070645  76.1210823  82.1169186  22.6800394
  74.8966932  82.9990864  22.5632620  96.5087700  50.8169985  38.2338285
  96.4434338  51.3703918  39.0121078  97.0145798  50.0571680  38.5219955
  43.4050798  60.1302958  20.1682734  42.5667953  59.8602581  19.7933209
  43.6295938  60.9338331  19.6990693  99.1318798  93.7072849  87.5513744
  99.9035931  93.9780140  88.0487537  98.7048435  94.5281219  87.3062134
  68.8958693  44.6972513  -0.1233961  68.8070107  45.6501579  -0.1058664
  68.3098650  44.3892908   0.5679731  99.2394447  76.7603207   0.6476070
  98.9535046  76.6743422   1.5570426  99.3340492  75.8588314   0.3400324
  68.3640718  69.3475342  16.6921496  68.9354277  69.9199724  17.2041035
  67.8028297  68.9254761  17.3426175  29.2856503  20.5283451  64.3322325
  29.4144678  21.2721014  64.9208450  28.6595798  20.8441710  63.6806822
  25.8655238  27.9283857  43.8688517  26.0802770  27.4330759  43.0784225
  25.6183219  28.7957478  43.5482168  45.1040888  56.7350912   8.0189890
  45.4696417  57.2511196   7.3004395  44.4340944  56.1903334   7.6059747
  39.2353153  30.0669956  90.6646252  38.8459182  30.4037118  89.8576355
  38.4919572  29.7385621  91.1703682  23.7721562  40.1161003  84.2400360
  24.2125273  40.0857258  85.0893784  23.2797694  39.2964339  84.1960907
  40.2607441  70.5940390   3.9885116  40.2427244  71.5219021   4.2229882
  41.0560656  70.2579737   4.4017321  28.6275401  44.5347838  92.9732183
  28.8507810  43.6061434  93.0365335  29.1408363  44.8544649  92.2312187
 112.8383732   7.1740663  25.0475168 113.6052895   6.7635179  25.4469109
 112.4769878   6.4988303  24.4733310  83.5591602  98.2149410  10.2599156
  82.8449440  98.2249928   9.6227086  83.2435322  98.7582111  10.9820449
  57.8509569  73.9712429   6.9370139  57.8690767  73.0320787   7.1210688
  58.0351734  74.0352535   5.9998912  24.5201826  32.3074102  83.7964630
  25.2395797  32.5934148  84.3594074  24.7876930  31.4420104  83.4870243
 105.2211761  12.5360453  86.9377708 104.3004704  12.3227489  87.0896053
 105.3297615  12.4669957  85.9892654  60.5827379  93.4915829  60.1011896
  60.2874851  92.5811291  60.1128864  61.3025713  93.5180569  60.7315588
   5.5371618   8.9026922  63.9249897   4.8014721   8.6064416  64.4609308
   5.6017965   8.2517958  63.2261419   7.6354986   0.4289556  10.9572768
   6.7213470   0.6841362  10.8330119   7.9803169   1.0690016  11.5799117
  78.7156296  42.7504015  22.6357841  79.3061686  43.2951403  22.1154428
  78.4732199  42.0330286  22.0502543 109.4081384 106.8493540  93.1480948
 110.1622373 106.2599260  93.1359992 109.4870931 107.3559076  92.3397639
  64.6365643 101.6085148  10.3985274  65.0622845 100.7587814  10.5123281
  63.7030554 101.4035511  10.3457201  63.7013626  62.2200012   1.2771636
  63.7292671  62.4480247   0.3479384  63.0296803  62.7944613   1.6446806
  24.2014670  39.0855861  89.2323971  23.7716246  38.7522244  90.0200176
  24.5990801  39.9115586  89.5079136  10.7853472 102.6061630  47.7149439
  10.1789224 103.2297325  47.3153830  10.5334413 101.7586040  47.3483229
 107.0638275  72.0537090   4.7425079 107.7730274  72.5092506   5.1961118
 106.2852573  72.5792313   4.9265912  38.8989162  49.1967344  64.4856358
  38.6895347  48.2677650  64.3886042  38.0824566  49.6495914  64.2745781
  39.7075033  25.9657288  90.1808071  39.2670107  26.6730189  89.7097111
  39.9135876  26.3403535  91.0372066  86.4637852  58.5566568   5.2594697
  87.1878338  59.1699982   5.3851080  85.9061050  58.6839962   6.0269415
  25.3840518  21.6754794  68.5127354  25.3257966  22.6308346  68.5244131
  25.9294200  21.4780688  67.7512693  92.3277664  99.0428829  61.5461111
  91.4987946  99.2308807  61.9862270  92.0721722  98.6480618  60.7124329
  51.6865635  44.1354179  76.7426634  51.9479513  45.0033903  76.4351988
  51.6903543  44.2082262  77.6970816  55.7306576  65.6007147   2.0042042
  56.5449953  66.1037350   2.0116700  55.1251364  66.1173344   2.5358868
  25.5209303  53.0252504  74.9399471  25.7727599  52.2792435  74.3956280
  24.5877385  53.1457424  74.7642612  13.4691179  71.5906668  64.5619917
  13.1697464  70.8270502  65.0554466  12.9723418  72.3223162  64.9282312
 101.8410492 100.3380585  86.6888809 101.7988110 100.0714493  85.7705307
 102.7356911 100.1295471  86.9579029  30.8499789  39.9802756  91.1722183
  29.8935366  39.9639773  91.2065887  31.1094308  39.0662670  91.2884426
  18.6989248  40.8181334  72.8365421  19.2196679  41.5721941  72.5600386
  18.4757280  41.0027695  73.7488604  45.5651283  18.0406129  81.4828682
  44.8687983  18.1861329  82.1233177  45.5029202  18.7875748  80.8875465
  15.0954390   9.7915995  81.3698864  14.8645627  10.5968153  80.9066868
  15.0560260   9.1097760  80.6992149  95.6265450  94.3979454  13.3623636
  94.7068024  94.6624947  13.3443201  96.0585117  95.0691509  13.8906729
  15.5073416  51.0895348  92.2260571  15.3358424  50.2638149  92.6788330
  14.7331107  51.6242838  92.4016666  12.0924354  20.4205346  39.1376472
  12.6109540  21.1948013  39.3564606  12.2918081  19.7942543  39.8335314
 101.8228340  38.8422322  88.6009598 101.7622948  38.1211782  87.9743385
 101.7642593  38.4202147  89.4581032  35.1064229 103.5149384  69.5588160
  35.1936197 103.2462311  70.4733801  35.0346804 104.4687462  69.5952177
  36.2136889  11.1593091  83.3367157  36.8168545  11.8951023  83.2316780
  36.1053205  11.0717463  84.2837238 109.1072369  62.9484129   4.7533950
 109.3202114  63.3665133   3.9190912 108.2013798  63.2052612   4.9256667
  55.8582783  80.6784534   8.1199658  55.2399349  80.4374981   7.4301660
  55.6711435  81.6001129   8.2981259  26.3257623  24.0176916  76.1377859
  27.1131468  24.4774771  75.8464861  25.6340599  24.6781158  76.0975456
 104.0139580 100.0137806  77.4917364 104.2208099 100.7495499  76.9154596
 103.3173561  99.5411587  77.0360994  45.0029612  50.5020952  78.2636690
  44.8958445  51.4214849  78.0197811  44.8461103  50.0192070  77.4522209
   7.0088214  26.1688423  69.2966652   6.0896444  25.9532166  69.1390181
   7.2568035  25.6271958  70.0459003  18.6291218  30.9472704  72.0078468
  18.7862265  30.0453830  72.2873974  19.5037735  31.3242149  71.9122982
  52.6485443  29.0493250  76.8279886  53.1538439  28.3769608  76.3710070
  51.9536543  28.5650229  77.2738695 102.9630184  29.3731380  27.4426651
 103.6776257  29.2598915  26.8159747 102.9846287  30.3039241  27.6649308
 101.0958290   1.0711713   8.3428580 100.8182240   0.7806499   7.4740851
 101.5626621   1.8914339   8.1832796   7.3295575  42.8195667  82.2880745
   6.6429693  43.4843636  82.2344303   6.8646908  42.0123911  82.5085068
  58.7303495  25.8942699  75.0206327  58.4864330  25.1419687  75.5598736
  57.9982710  26.5037441  75.1146269  62.6304674  90.3653908   8.8440293
  61.9601297  89.6865940   8.7657970  62.7816868  90.4452515   9.7858280
 113.5215759   2.9680884   9.3520075 112.9390621   2.3288986   8.9417142
 113.0539703   3.2477275  10.1390171  20.1868820  62.7687788  38.3433509
  20.1665592  63.4925318  38.9694452  20.8441401  63.0288315  37.6978922
  25.3547692  69.4738674  71.2089539  25.4263258  69.0692806  72.0734882
  26.2549901  69.5085430  70.8854866  37.6051617  31.0462904  88.8567638
  37.4518561  31.3759160  87.9712868  36.8063164  30.5663872  89.0753365
  65.3885078  63.9688778   3.0637568  64.4413471  64.0032387   2.9298094
  65.5848265  63.0358028   3.1477842  37.7816463  18.7461257  71.3684511
  37.7887344  19.2981327  70.5864859  37.1939874  19.1971111  71.9746733
 100.3097439  11.3654554  16.0828519 100.5661678  12.0525420  16.6979849
 100.6082535  10.5535305  16.4926076  53.7967825  46.9808865  73.3686543
  52.9483652  47.3976612  73.2179070  54.0118742  47.1968555  74.2760229
  39.2998981  30.5792236  51.2886477  39.2464113  30.0049257  50.5247402
  40.0805902  31.1111140  51.1342287  76.3394356  89.1779041  75.7314587
  75.5959129  89.7657204  75.8651924  75.9548521  88.3877468  75.3520107
  22.7141738  23.3162284  72.5297022  22.6122904  22.4075770  72.2464991
  23.6516380  23.4899139  72.4447107  16.5421820  22.8644419  76.5237713
  16.7953944  23.7456107  76.2487173  17.1857131  22.2898865  76.1090612
  13.4221315  57.1931505  67.3134947  13.3017087  56.9512653  66.3952255
  12.7732348  56.6714239  67.7856874  26.1763382  44.6068859  70.2968550
  25.9575129  43.7610006  69.9059343  26.0526848  44.4754696  71.2368965
  43.0188513  22.1677470  69.1699219  42.6971960  23.0117869  69.4867277
  42.8928185  22.2039819  68.2217503  94.9808502  91.5871429   2.6516560
  95.1429272  90.8410645   2.0743117  94.0359020  91.5716171   2.8035510
  33.7761831  23.8425303  80.9570122  34.1310620  23.4914780  81.7737484
  32.9208326  23.4223247  80.8673477  18.5604036  20.7478499  78.2755232
  18.0548453  20.2379560  78.9084959  19.2022324  20.1289153  77.9273748
  58.2452250  15.8538806  49.7838640  57.5008678  16.1456490  49.2575216
  58.8769865  16.5704215  49.7231960  28.1434536  27.4186420  70.8744907
  27.5337219  28.1341052  71.0549688  28.9933944  27.7491784  71.1653137
  21.5032172  66.0622740  65.5092859  20.9805799  66.6300821  64.9430037
  21.2061763  66.2688971  66.3954639 113.7226200  25.8545613  64.5253325
 113.0342960  25.9236979  63.8637733 113.5491371  26.5777302  65.1279593
 107.7263546   1.5850535   3.3927059 107.4185658   1.1391927   2.6035884
 108.6759758   1.4654255   3.3804360   3.6087179   5.7711506  63.9261818
   3.2048905   5.9828502  64.7678089   4.5099729   5.5349106  64.1456413
 101.0594273   2.0681763   2.3236006 100.4559326   2.4039000   2.9864016
 100.4915619   1.6905841   1.6518998  23.5313940  58.2904291  80.3292370
  24.3286943  57.9539585  79.9201822  23.8409233  58.7746429  81.0947227
  95.7583427 102.7158833  90.7913876  96.5585613 102.1943092  90.7294464
  95.6044674 103.0253506  89.8987579  16.3277888  18.8274753  89.3588829
  16.3165629  19.6064007  88.8026619  16.0708714  19.1470706  90.2237988
  58.7518454  59.7887373   2.7341759  58.6407948  59.4847107   1.8333595
  57.8603649  59.8538923   3.0765888   9.9720424 101.4117908  84.5474625
  10.6623089 100.9864616  85.0562477  10.4413486 101.9404125  83.9020634
  45.4276276  38.2533288  73.0366707  45.3168297  39.1427493  73.3726597
  46.3711405  38.1637716  72.9025364  33.4307241  49.4190788  75.1202202
  32.9782009  49.7046375  74.3265486  33.8135719  48.5734653  74.8865461
  90.7362556 104.1903591  16.6634369  90.7356644 103.5979843  15.9115541
  89.8906803 104.6365929  16.6174495 111.9041538   2.1087451  72.5346994
 111.5781975   2.9830486  72.3212147 111.1345387   1.6375422  72.8539181
 112.9582405  38.1506252  87.2968769 113.7112141  37.6233101  87.0300293
 112.2906017  37.5091457  87.5397682  23.6569357  24.5225072  80.8557892
  23.0559611  24.2350841  80.1684380  23.6361718  25.4782796  80.8078194
  44.3491840  59.0342426   0.6715409  43.7420845  59.6197510   0.2189454
  44.2447662  59.2506361   1.5980949   8.3098900  36.9086647  67.1103477
   8.8520730  36.9616675  67.8974056   8.0773538  37.8170633  66.9180727
  22.1670341  22.8111601  90.9185982  22.1030736  23.2158160  91.7836952
  22.1269751  23.5462260  90.3067875  20.4630637  33.0841780  85.7976246
  21.0850310  33.2902598  85.0998306  20.0200033  33.9136529  85.9762383
  96.9047832   9.2056322   8.1637996  96.5398407   9.8366618   8.7841654
  96.1625862   8.6523098   7.9204684 113.4450245  48.1755447  27.9285932
 113.1138802  48.9134693  28.4404969 114.2293262  47.8912449  28.3979225
  17.6617885  13.6445439  90.9022713  17.1393871  13.8434625  90.1252556
  18.1671500  12.8688788  90.6589890  38.4084964  43.7899399  83.6642647
  39.3359208  43.7651491  83.8998508  38.0141282  44.3808222  84.3057919
  85.4982471  34.8138762  64.2997074  84.9508381  34.7776651  65.0840950
  86.3845825  34.9548745  64.6324921   5.7678121  73.6216021  72.0338011
   6.7212439  73.5464239  71.9944382   5.4784423  73.4725952  71.1336374
  10.6296742  10.4382741  76.7469025  11.3087070   9.8025084  76.9726181
  10.6477392  11.0725963  77.4635172   7.6407629  14.9433041  87.6779842
   6.8897003  14.9248683  87.0848560   7.3907727  14.3655264  88.3990288
  41.9112539  22.8953576  89.0050316  41.6730404  22.4207520  88.2086468
  42.7107000  23.3675742  88.7723637   8.0543417  23.6989784  82.6688290
   8.7869245  23.6146808  83.2791138   7.7105051  22.8097892  82.5830841
   8.9238137  37.1217442  61.0692310   8.2978880  37.3005533  60.3674650
   8.4899491  36.4667368  61.6160011 103.4032249   6.6927546  60.3892756
 103.0174351   6.1922622  61.1082363 103.8573265   7.4177241  60.8187437
  32.1088505  50.3755569  90.0135994  31.6341138  51.1981153  89.8942089
  32.2151327  50.2957726  90.9615326   2.1833867  24.2183256  71.4018679
   2.3706734  23.8015819  70.5607510   1.3171625  24.6093273  71.2878323
   5.3081942  34.8218751  75.9561062   4.4001377  34.8209500  76.2588692
   5.4494250  33.9369154  75.6197596  17.5649333  18.0864418  82.8172874
  16.9603825  18.7810457  83.0785847  17.5117147  17.4439132  83.5247898
   7.5751865  10.7093179  90.0422668   8.1843585  11.0737395  90.6843948
   7.9762954   9.8827058  89.7738361  73.2914209  71.2874079  15.5572724
  73.4433603  70.7708931  14.7658432  73.0157137  70.6463146  16.2124193
  65.9475851  97.5988579   3.3840519  66.0561991  97.5536442   2.4341094
  66.2177658  98.4878922   3.6139694  16.3139582  51.7350960  62.6825380
  15.5507028  52.2687387  62.4614048  17.0538568  52.3395634  62.6241922
  63.3336878  42.6001787  10.7169104  62.8859472  43.4462070  10.7173944
  63.7255812  42.5370932   9.8458934  61.3782263  68.2299328  15.3617775
  60.9474421  67.4418879  15.0306463  60.6878471  68.7030888  15.8262432
  31.6148996  32.1342158  81.0872936  32.4401259  31.9831610  81.5481853
  31.8127632  32.8340578  80.4649544  51.8754911  49.8247910  10.7138371
  52.0175934  49.2510414   9.9609441  52.5580740  49.5757484  11.3369644
  29.5987344  18.5783541  85.4046631  29.5285392  17.6338565  85.5433369
  30.3856540  18.6841118  84.8700619  34.6034288  26.5100360  81.3962364
  34.9109125  25.8538675  82.0216465  33.7484384  26.1873507  81.1114597
  16.4110911  79.0360737  64.1027498  16.2216139  78.2594776  64.6292734
  15.5586672  79.3095064  63.7638712  68.7469149  60.7967854  13.9622784
  68.2437181  61.5842056  14.1696262  68.8532209  60.8239603  13.0113876
  30.1955771  46.3494301  32.0879912  29.6488738  45.6230307  32.3874688
  31.0890913  46.0082197  32.1259499  85.2319336  85.7058716   3.3305645
  85.6508923  85.3942108   4.1327950  85.4109287  86.6460800   3.3165634
  86.5001011  77.4639511  19.3691480  86.1860657  77.7420616  18.5087597
  86.8994236  78.2491350  19.7436595  19.6074605  45.1480293  49.5659351
  18.8771582  45.7664728  49.5454359  20.3236961  45.6365538  49.9716187
  36.8221021  36.5923858  37.8960633  36.1112380  36.1996031  38.4026480
  37.2294188  35.8542538  37.4427581  64.4573307  61.5884018  20.5029655
  64.5815754  62.4185848  20.9629488  64.8329973  61.7368460  19.6351683
 109.9127102   3.1024370  14.9372268 110.7596016   2.9644588  14.5129967
 110.1025581   3.0493402  15.8739066  55.0826025  16.3019848  73.6497355
  54.8045778  16.1547005  72.7457237  54.7375965  17.1676540  73.8684082
  38.3448911  44.3241167  61.0842609  38.4105706  43.7270641  60.3389788
  38.2464337  45.1904106  60.6892014  78.9581537 106.2032032  91.9464779
  79.5097542 106.9785213  91.8423367  78.3119726 106.4558125  92.6059341
  37.0767951  50.6104755  81.0505199  37.6245093  49.9394417  81.4578915
  36.3701081  50.7570267  81.6792870  72.2480869  96.3462543   2.4746396
  71.3532257  96.1349010   2.2085868  72.7963686  95.9887886   1.7761832
  94.8493290   9.5912659  62.8006458  95.4365635   8.8353890  62.7942181
  94.9979210  10.0171852  61.9564009  24.5440149   3.8168865  85.9282112
  24.3990541   4.6865684  85.5555534  25.4662848   3.8167888  86.1844349
  75.7364798  19.7012734  34.6293592  75.5207253  19.4430852  35.5254745
  75.6132984  20.6504369  34.6173358  51.4111900  80.1015282   5.7938224
  52.1455193  79.4972420   5.6850660  50.8754015  79.7060728   6.4814138
  68.9285183  76.3099003   3.3626172  69.1068697  75.6687927   2.6745760
  68.2269859  76.8548965   3.0061540  25.7267237  39.5603418  41.9018650
  24.9536896  39.1369319  42.2751951  26.4383698  39.3287230  42.4986410
  19.1283429  43.9084578  69.6383238  19.7069776  43.4476185  70.2458096
  18.2497334  43.6064816  69.8687315  50.8964634  75.2541637   5.6431657
  50.2428865  74.8652554   5.0619441  51.4314413  74.5144415   5.9309942
  15.1539254   1.1526474  37.9874825  15.3182447   0.2972633  37.5905585
  14.7575939   0.9511825  38.8351631  91.3724327  71.4154959   1.2071946
  91.8385792  72.1734667   0.8544662  90.4977417  71.4719439   0.8225203
  42.6533604  80.8534622  22.9521561  42.0551538  81.5971565  23.0249858
  42.0904541  80.1152515  22.7188921  73.9272165 100.8298206  86.5882778
  73.1580591 100.6822586  87.1385956  74.6693182 100.7506466  87.1876526
  21.3578725  17.5671530  59.9788809  21.5193200  16.6827190  59.6503305
  21.6765666  18.1427979  59.2836857  96.6445732  52.0122671  14.7027791
  97.4137306  51.4579964  14.8347080  96.1407471  51.5649033  14.0228891
  94.1436291 100.9677219  81.6582012  94.0162849 100.1964664  81.1057663
  93.9341927 101.7077351  81.0883331 108.0291557  41.6895103  49.1209650
 108.4051991  42.1122265  48.3488655 107.3133278  42.2672606  49.3855762
  24.7860909  94.2343616   8.9539844  25.1043344  93.9331150   9.8049873
  24.2305779  94.9865437   9.1585863  81.2961864  30.0407338   2.3586281
  80.3462887  30.1574755   2.3411994  81.6208458  30.6150055   1.6650560
   0.4327692 106.2046432  81.3770866   0.0271903 105.4924011  80.8826637
   1.3308078 105.9099960  81.5285587  61.0568762  29.3492579  76.6793919
  60.8782625  29.7974324  77.5061131  60.8640862  28.4290886  76.8592596
  19.4508111  30.5727744  57.9885101  19.2963302  31.4517331  58.3346272
  20.0435758  30.7072973  57.2490740  55.9164381  56.3525772  16.8566430
  56.2316513  56.8005371  16.0716558  56.6486883  56.4023018  17.4711120
  73.9028502  46.0605812   8.2118791  73.7891531  46.1490107   7.2655785
  73.9609766  46.9610310   8.5313141  71.1221981  69.2642975   2.0875619
  71.7225266  69.8316097   1.6038284  71.6672993  68.8577890   2.7612457
  24.0129638  46.5636206  41.4240646  23.6228132  46.9640207  40.6470871
  23.2690740  46.3786221  41.9973326  34.3707585  80.5055332  30.0419259
  34.9028158  81.1033249  29.5167661  34.3424726  79.6973228  29.5298409
  18.5660303  48.5120630  91.1754704  19.1575086  49.0297174  91.7217445
  17.7826989  48.3966208  91.7133331  50.5111551  30.1019120  12.6409090
  50.2369738  30.5569506  11.8446696  50.3968525  30.7482886  13.3375907
  56.4425516  84.3481064  20.3417349  56.8107367  84.5944118  21.1902666
  55.9330893  85.1118660  20.0709105  63.7922907  76.2460136  18.0561304
  64.1173458  75.8792114  18.8783383  63.9824009  75.5734634  17.4020958
  65.0137424  82.8149319  11.7547512  65.3645897  83.4503078  12.3787999
  64.4266653  83.3257198  11.1973751  92.7150249  86.1710930  21.1657095
  92.0965862  86.1090469  21.8936634  92.6840878  85.3089428  20.7510138
 112.3358345  10.2029002  25.1419830 111.8573284  10.5375171  24.3835044
 111.8302155   9.4419473  25.4275250  39.7044349  48.5764694  70.8666563
  40.0113201  47.8010178  71.3364792  39.7452378  48.3286476  69.9429941
  95.7232475  46.5251446  14.9272227  95.4182625  47.4324560  14.9260104
  96.3055801  46.4671993  14.1697478  59.1279221  63.5096455   8.5445821
  59.3421602  63.0425978   9.3521720  58.5709047  62.9025364   8.0573595
  18.8661420  22.6744628  73.0580091  18.8199508  22.8505039  73.9977455
  19.3797624  21.8695974  72.9900694  91.4988041  86.1926651   9.3176419
  91.3089180  86.9943810   8.8303763  91.8101788  85.5771255   8.6540282
  17.6424193  16.1529791  84.8235226  16.8250704  15.6593955  84.8909473
  18.3096743  15.5596423  85.1684189  45.0938940  45.4690552  81.3900757
  45.6983614  44.7625732  81.1626339  44.9540281  45.9386206  80.5677795
   4.0016779  14.9626875  21.2815070   4.7862199  15.0849771  21.8160820
   3.4788153  14.3239379  21.7661142   0.4438162  13.1012654  11.6403103
   0.6725931  13.3482218  12.5363600  -0.1079130  13.8182759  11.3277078
  64.2811584  82.4174690   3.1071207  63.6172390  81.9867229   2.5686932
  64.7646999  81.6976833   3.5124984  35.5161810  57.5369310  81.1836052
  34.8750091  57.0305824  80.6848621  36.1528611  57.8269529  80.5303383
   0.0051209  25.0308418  89.8725128   0.4862287  24.2615080  90.1772976
   0.6493381  25.7385945  89.8898983  40.4744339  16.0377312  47.5539589
  40.8283138  16.1796987  46.6759777  39.7091269  16.6108668  47.5992918
  31.3069797  84.7736549  11.6507971  30.9956288  85.5105209  12.1764612
  30.5729628  84.5644665  11.0731387  29.1718340  30.5576611  74.5169783
  28.7678409  31.4022064  74.3175650  28.4462237  30.0097442  74.8161554
  37.5265217  46.9590712  88.3008385  36.9968581  46.8274355  89.0872002
  37.7195811  47.8965902  88.2962704  38.4793639  50.4902744  77.0900059
  38.5784101  50.8907223  76.2262535  39.3145561  50.6551218  77.5276232
 110.7953167   6.0572690  19.4047141 111.1374092   6.8362916  18.9661562
 111.1348915   5.3245687  18.8908362  47.5996876  46.1524725  70.7270908
  47.6220322  47.0236254  70.3310776  47.2295618  45.5896568  70.0470400
  56.2564659  18.7181127  79.9457741  55.4366875  19.0450442  80.3163242
  56.1135197  18.7310779  78.9994001  89.8619175  70.4584265   8.0643725
  89.4204140  70.1582861   8.8588709  90.5670071  71.0230970   8.3809459
  59.1573906 102.6543713  13.9571381  59.2758083 102.4553394  13.0283785
  59.8383331 103.2979774  14.1528809  50.3676176  82.5339031  19.4964063
  50.1547766  81.8032455  18.9158273  49.9813223  83.2989407  19.0701139
  11.5741730  55.1117754  89.9661541  11.8740106  54.2112160  89.8423958
  12.2082794  55.6435728  89.4851875  16.9437611  32.8104138  81.6898918
  17.4579740  32.0136261  81.8200493  17.5510812  33.5227466  81.8898296
  90.6213188  84.2603397   4.6378452  90.1815128  83.9361763   5.4237974
  90.2402592  85.1258564   4.4898817  78.3443785 101.3760567  41.6617918
  78.3144569 102.0186329  40.9529686  77.4660730 101.3974953  42.0417356
   1.4372252  45.9921598  56.9923687   0.9287069  45.3009367  57.4164534
   1.8035437  45.5757093  56.2122345  96.5014935  41.2299681  59.6955204
  96.5455246  41.6631699  58.8430929  97.3690414  40.8427954  59.8125219
  73.6688232 104.4498062   2.9591399  74.0323210 105.2497482   3.3388692
  74.1973591 103.7451744   3.3338219 108.1982613  15.8630061  32.2229075
 108.0800724  14.9299371  32.4008107 107.6261044  16.0387576  31.4759254
  26.8235707  43.4634399  90.8147049  26.1491179  44.1421461  90.8411789
  27.0891619  43.3539629  91.7277813  31.5208602  21.7522526  80.5727291
  31.0502338  21.5129828  79.7742987  31.8460345  20.9205818  80.9174252
  42.4592400  -0.1736572  83.7807465  43.2532606  -0.3871944  84.2708111
  42.2199840   0.7026837  84.0824223 113.5789776  21.8510485   7.7308369
 113.7743759  21.9709897   6.8015003 112.6229954  21.8288088   7.7736610
  48.7508917  63.3759022   4.5868707  49.4612885  62.9460001   4.1106901
  48.9455748  63.2093382   5.5091435   5.4484338   2.9688757   0.1621446
   5.9200162   3.6621778  -0.2995673   4.5384902   3.2656448   0.1749143
  10.0501859  14.9253798  86.7337322  10.5261457  15.0755632  87.5505161
   9.1351652  15.0996101  86.9542122 102.6469707   7.1558619   0.5679667
 103.0292320   6.5270346  -0.0441458 102.8026390   6.7741531   1.4318523
  38.1169868  86.6103554  19.7934878  38.0267549  87.5540447  19.9259460
  37.2231293  86.2733936  19.8544061  92.8317547  80.2114296   0.9805634
  93.2949162  80.9389782   1.3957612  91.9490433  80.2480125   1.3489528
  13.4466445  38.8454914  70.4255438  12.8977561  38.6640286  71.1884499
  13.5164344  38.0038190  69.9750471  28.2649565  30.3866005  77.5898790
  28.3312869  30.3869891  78.5447788  28.9093089  31.0344839  77.3047686
 104.9837685  29.2957091  72.9645109 105.2132893  30.0422764  72.4111700
 104.8456001  28.5753107  72.3495579  88.2878780  79.3812752   1.8808554
  89.1128540  79.3888855   2.3662272  87.6471233  79.7450304   2.4918830
  15.9756529  47.5958157  56.7649794  16.7356539  47.8229523  56.2292194
  15.3831708  48.3413982  56.6685247 113.1826401   8.3685076   0.7610273
 112.8812218   9.2706263   0.8685435 112.4158096   7.8336829   0.9663685
   5.7166094  17.0897436  84.8481846   5.3617769  17.2707832  85.7185555
   4.9489391  17.0650446  84.2769527  41.8060589  28.7227654  73.5033512
  41.6422749  28.7959957  72.5631142  42.6980543  28.3810782  73.5651922
  55.0876904  39.2773581  67.2495270  55.3144741  39.9139261  67.9274559
  55.7500362  39.4045925  66.5703058  41.2338209  71.0054731  39.8972774
  41.1170006  70.0608587  39.7958446  40.3547287  71.3372946  40.0798225
  85.8560371  89.6045399  10.7853687  85.5544376  90.0916672  10.0185704
  85.5323410  88.7145329  10.6462789 101.3469601  43.2582235  90.0957584
 102.1648788  42.9848909  89.6803761 100.7162476  43.3018351  89.3770599
  49.9736834  69.8076057  68.8746166  49.1462421  69.4274950  68.5794973
  50.6070566  69.5529413  68.2036352  75.1611757  83.0138493  13.9159811
  76.0869551  83.0290413  14.1587412  74.9171543  82.0893288  13.9600480
  29.4133019  12.7178228  82.4500561  29.3121481  13.2055271  81.6326523
  28.5793304  12.8366017  82.9046059  33.6055398  42.1225452  71.2683010
  34.1541743  41.3436127  71.1761045  33.9474249  42.5657749  72.0447636
  35.3058505  38.9252830  76.3657141  35.1109314  39.5059109  77.1013165
  34.7732210  38.1465983  76.5275478  73.4778881  97.1595860  31.5641356
  73.1150007  96.3393879  31.8985224  74.2110443  97.3529148  32.1483779
  92.1033287 101.9554520  75.1740599  92.4545860 101.5118694  74.4019985
  92.8413391 101.9983578  75.7821178  62.5320530  10.2395773   9.2435920
  61.7406702  10.3054416   9.7780097  62.6168108  11.1005545   8.8339984
  62.6789665  35.0548148  49.3572617  62.5348186  35.8870149  49.8077011
  62.2567081  35.1671529  48.5056114  40.5367088  53.8446140  75.8791447
  40.0398827  53.3639479  75.2170563  40.6020975  53.2380295  76.6167164
  38.6249185  33.4091067  27.6944232  38.2101107  34.0998101  28.2112384
  38.7139702  32.6754737  28.3027697  34.7093463  19.1951561  55.0408220
  35.3167415  19.2095637  55.7804775  33.9876151  18.6391294  55.3343725
  77.1614361  19.1568339  12.1862209  76.7739773  20.0312829  12.1481836
  77.8017521  19.1474247  11.4747834  24.6352720  20.3610516  64.0418625
  24.1904950  20.0827217  63.2412767  24.0821004  21.0588837  64.3929482
  41.0129309  41.0402966  72.0686245  40.5168152  40.3842688  71.5790033
  41.4706516  40.5396080  72.7439308  96.6933441  92.3982716  16.8859100
  97.0095062  91.8246555  17.5839341  96.9142914  91.9359112  16.0774338
 112.2793007  63.2842970  63.5831833 113.2246304  63.1341124  63.5785246
 112.1882248  64.2364073  63.6209249  68.6218739 104.8176956  19.5679355
  68.9537525 105.5620384  20.0699711  69.3572903 104.2060566  19.5319593
  12.5569892  41.4830589  68.8915396  12.4571276  40.7972908  69.5518351
  11.7125154  41.9336653  68.8846016  29.8370433  31.8279719  59.9655151
  30.5194211  32.4643517  60.1790810  30.0259995  31.5676522  59.0639830
  30.6586719  20.1150894  58.1847811  31.5173793  20.5340576  58.1271887
  30.1395869  20.5377364  57.5005627  93.7952042   3.4746474  31.4757681
  93.3362675   4.3131638  31.4257669  94.6853161   3.7043181  31.7425823
  51.6360235   3.7378627  68.9885950  51.5439844   3.8785204  68.0462694
  50.7969236   3.3643430  69.2580891  36.9226551  18.8452053  57.3510885
  36.3918805  18.4768927  58.0573845  37.4050403  18.0971920  56.9989300
  70.6886482  73.1783438  22.3014736  71.0106087  73.7546492  22.9946136
  71.0405159  73.5543871  21.4946198   3.8387197   1.3810146   2.7455661
   4.4534105   2.1041140   2.6210108   2.9853654   1.7502080   2.5181580
  73.2595730  78.9191055   8.2074398  73.0815935  78.0050421   7.9859799
  72.4223995  79.3645048   8.0771208  93.6944771  57.2053337  66.5640926
  94.5298576  56.8572569  66.8758821  93.1462765  56.4315653  66.4337635
  40.4884911  28.5115480  81.2576485  40.8817911  29.3640018  81.4443684
  39.6919394  28.4939098  81.7881393  67.3956823  84.1233540   6.5181458
  67.3569870  83.2095146   6.8003321  66.9680548  84.1279030   5.6617910
  16.2329423  43.8330603  34.5587897  15.4273856  43.3632183  34.7745609
  15.9351456  44.6845245  34.2385507  14.6236992  14.7517359  81.1617088
  14.6690857  15.2461946  80.3433609  14.7193933  15.4132628  81.8468761
  78.9113235  66.0144615  40.0063181  78.1290483  66.4873362  39.7222948
  79.6399212  66.5760565  39.7417545  41.3137531  97.9238605   5.1387793
  41.0039616  98.8115406   5.3184640  41.1500263  97.7976322   4.2041713
  70.7735205  89.8513603  20.4257727  70.5298901  89.0569115  20.9008765
  71.0371399  89.5410347  19.5594943  12.3151422 104.8351574  91.2966442
  11.5456688 105.1269817  90.8077908  12.5601351 105.5906105  91.8309593
  49.5141125 106.1056709   3.7927580  50.3773975 105.8556080   3.4634650
  48.9802027 106.2154293   3.0059126  30.1918554  86.9236374  13.6078405
  29.5081043  86.8861580  14.2766559  31.0068774  87.0065022  14.1029179
   7.6285243  82.0357037  82.5614738   7.5606257  81.0812569  82.5870705
   6.7615426  82.3446274  82.8244114   3.8925931  57.5803185  78.4357262
   3.7563831  58.3253622  77.8504181   4.8401558  57.5494862  78.5676575
  15.1570690  40.1137161  63.9337969  15.0424135  39.1671777  63.8492489
  14.2952871  40.4783201  63.7322283  42.5928926  53.6872053  62.6364470
  41.7273331  53.3415031  62.8544521  43.1819201  53.2734823  63.2674074
   5.7633424  34.6064281  58.9356279   4.8509866  34.7882128  59.1610003
   5.8648711  33.6667895  59.0873003  47.8898144  61.6822529  91.8816853
  47.1362019  61.1309195  92.0922279  48.0822277  61.4850044  90.9650040
 111.9289780  37.0950937  62.6499796 111.2707996  37.2382355  61.9698668
 112.5630093  37.8006768  62.5219965  78.5528517  91.8688774  25.3911853
  78.4416342  90.9631634  25.6802249  78.8747454  92.3297310  26.1659336
  53.9882374  38.1758475  61.2583923  53.4646368  38.6978483  60.6504488
  54.1726971  37.3665309  60.7817221  18.2263756  97.8899193  18.0568135
  17.5201571  98.0288219  17.4257898  17.8369904  97.3369503  18.7341881
  30.0857472  41.9816828  80.9533787  30.6662059  41.7553663  81.6800690
  29.3589091  42.4497890  81.3642597  71.9966555 103.6491966   9.2073441
  72.7024746 103.4876442   9.8334068  71.7236519 102.7766705   8.9237857
  31.6672325  98.2737255  34.9349093  31.4953470  97.3686790  34.6749544
  30.8082199  98.6955929  34.9160647  32.9646444  44.5237303  59.0684605
  32.1919799  45.0587511  58.8868809  33.2829428  44.8416424  59.9133539
  25.8707070  22.6025367  59.1374588  26.7054868  22.1468139  59.0293360
  25.7388353  23.0609488  58.3075809  61.7618227  59.3260908  92.2246265
  62.1935940  60.1771879  92.1509361  61.5458298  59.0882206  91.3229656
  20.8060741  49.0865898  83.1578445  21.0120153  48.3829069  83.7731934
  19.8531067  49.0587330  83.0723572  84.1470814  89.6648502  22.9467058
  83.7531090  89.2244434  22.1936727  84.1874409  88.9902401  23.6245775
  24.8354912  46.0082293  90.7918835  24.8268676  46.2117386  89.8566055
  24.6504474  46.8438387  91.2205315   6.9780964  41.0880756  58.5267067
   7.1841103  42.0215321  58.4772825   7.8063661  40.6723547  58.7662411
  13.3646822  38.3689642  89.0471554  12.9463995  39.1099238  88.6086941
  13.5011280  37.7252269  88.3520222  30.4690528  72.5244141  37.2242308
  30.2219582  71.7477846  37.7262473  30.0228524  72.4184752  36.3840437
  16.7535210  32.2706246  47.2794580  15.8990932  31.9107652  47.5175428
  16.5565062  33.1320119  46.9114494  24.1150737  48.5407972  91.5581322
  24.8259473  48.7371969  92.1683121  23.8974500  49.3855286  91.1640453
 111.9084263  30.0635505  56.1072636 111.5852642  30.1978159  55.2163267
 111.2624550  30.4978490  56.6643476  22.9928112  20.1882648  77.5947952
  23.6781478  19.5285523  77.7012062  23.1503439  20.5594039  76.7266512
  69.7767082 106.8960786   6.2760347  70.4348197 107.5113984   5.9527606
  69.7435108 107.0546306   7.2194278  15.8594930  39.7794175  66.5497255
  15.9364033  39.9823070  65.6174421  16.5588284  40.2853823  66.9634438
  37.8613687  34.8762393  68.6580133  38.0803418  34.8826313  67.7262211
  36.9044876  34.8633957  68.6790991 100.2301693  27.8416896  91.0903645
  99.7909355  28.1874156  91.8673992 101.1369801  28.1356144  91.1771297
  34.0523553  32.7315640  87.6626778  34.8703384  32.2664356  87.4872112
  33.4455442  32.0491052  87.9494953  36.9360423  20.6271005  81.7947388
  37.5509953  20.6791139  82.5264263  37.4805880  20.7401943  81.0156918
  66.6542101  69.4507313   8.5811573  65.9479189  70.0096846   8.2571900
  67.1848679  70.0288105   9.1293001  84.2050457  92.0124149   1.4733291
  84.0652847  92.8307533   1.9497958  84.0832138  91.3282108   2.1315533
  97.3530579  51.7715263  59.1272640  97.4514580  51.2761927  58.3141232
  98.2128048  51.7196560  59.5448446  89.3033123  14.6500051  19.6297753
  89.6350765  15.1068735  18.8568330  88.3909130  14.9306107  19.7006261
  12.4776638  30.2188158  85.6880474  11.5225065  30.1721144  85.6465149
  12.7765763  29.4599962  85.1869678  43.0567789  54.8903704  60.3656530
  42.9682255  54.4375467  61.2043047  42.4879360  55.6560421  60.4456377
  30.3453445  88.5146809  31.3884068  30.9892941  88.1738091  32.0091820
  29.5168066  88.4941769  31.8672967  25.3842187  32.9004765  67.1883821
  24.8658848  32.4965525  66.4923906  26.2709379  32.9463148  66.8308067
  26.1507750  76.7720842   3.0548412  26.1705375  76.9745970   2.1195181
  26.7395091  76.0234070   3.1502929  48.3499241  71.8216753   1.4161517
  48.7096310  71.0590458   0.9631127  48.6742067  72.5715399   0.9173805
   8.5071129  15.6578255  54.7743797   8.6148077  16.4205194  54.2061090
   9.2831886  15.6650853  55.3346348  27.3621249  41.0509729  73.9981937
  26.5173483  40.8592129  74.4053984  27.9722071  40.4417276  74.4139481
  89.2375660  96.6551685  26.6835499  89.4268894  97.1075058  25.8614969
  88.6008167  97.2171783  27.1250439 111.3959789  64.3357468  53.1385469
 112.2447681  64.7628117  53.2543373 111.4419556  63.5571194  53.6933899
  21.8113995  32.5350142  48.2852411  22.4335814  31.8076563  48.2767487
  22.2151518  33.2020640  47.7300310  65.0333214  47.0158243  89.2703819
  64.4565439  47.6801634  88.8932705  65.3161621  47.3899460  90.1047993
  50.7636309 103.1434250  22.6345921  50.5704308 103.2648563  21.7049885
  50.7239914 104.0253162  23.0046463  10.3625262  68.0214071  60.3531408
  10.9490728  67.2671270  60.4101801   9.7311562  67.8878450  61.0600853
 111.4693451  27.1023917  79.2065573 111.7294121  27.0927620  80.1277065
 111.1195183  26.2257600  79.0472698  20.5669999  25.9411645  79.0740252
  20.7998109  25.3500557  78.3580494  21.2999725  26.5545702  79.1261482
  19.5301533  10.6432056  69.2213488  19.6700537  11.0889840  68.3859205
  18.9919615  11.2501359  69.7294998  77.3998165  69.5661831  19.8634362
  76.9141293  68.7520838  19.7308230  78.3161259  69.2934513  19.9106038
  62.6258898 101.2270260   8.1579947  62.0523596 101.7549801   8.7134755
  62.8439665 101.8017101   7.4242276  81.4014816 105.3308201   8.5425049
  80.9790993 105.0876141   7.7186853  82.1007919 105.9315205   8.2849145
  82.8312683  31.5656900   4.6480116  82.2199345  31.7287326   5.3662801
  82.4597073  30.8162546   4.1826957  25.3769779  55.4760981  73.5728455
  25.3374910  54.6702147  74.0878487  26.2213731  55.4324627  73.1241512
  54.2536211  44.7241545  69.1785288  54.6595287  45.3391504  69.7894669
  54.9604034  44.4774675  68.5820055  57.1310997  98.5339069   2.7634338
  56.7351675  99.2717838   3.2271162  57.0897102  98.7814522   1.8397242
  47.6824474  51.4311218  78.1721210  48.1225252  50.9215069  78.8524532
  46.7507267  51.2604761  78.3100033  53.5185146  33.9679027  84.7176552
  52.9172516  34.1071558  85.4493141  54.3862534  34.1347408  85.0856495
  92.2118187   6.4550757  13.7932217  92.1030521   6.2888312  14.7295785
  91.3184261   6.5306789  13.4580219  83.1071663  74.3206644  64.3177557
  83.0958080  74.5441151  65.2484417  82.3627853  74.7956610  63.9482927
  55.7371998  93.0252647   1.4240159  55.6731510  93.7460327   2.0506173
  55.9450960  93.4494209   0.5914892  90.5328751 103.9487743  19.4693363
  90.7131290 103.0194092  19.3278158  90.9424973 104.3883705  18.7242246
  20.5005527  73.1316900  84.6479225  20.6406879  74.0458441  84.8947334
  21.3670397  72.8179646  84.3890572  38.5281086  52.8643847  89.5114422
  37.6249075  52.6100016  89.3223667  38.9871550  52.7547169  88.6786842
  35.5159283  74.3578815  23.8212609  34.9918079  75.1587200  23.8076711
  36.3749790  74.6391678  24.1361260 110.3168297   8.5523659   3.1617922
 109.5874405   8.0632937   2.7809733 110.4439449   9.2931128   2.5690299
  65.1217985  88.2844162   6.4071375  64.8065901  87.9379177   5.5723828
  64.4622707  88.0105305   7.0445085   1.1984061  10.5514395  26.6992140
   0.3359590  10.6951475  26.3096428   1.0141523  10.3137720  27.6079464
  98.0809212 100.7461357  71.7210579  98.1478310 101.6042423  72.1398830
  97.1842003 100.4622269  71.8986034  36.2023950  52.5528002  77.0366859
  36.7561841  51.8090630  77.2741842  36.2519145  52.5929403  76.0816097
  30.1475787  99.7676182   5.4333311  30.6441808 100.5640507   5.6212461
  29.3921494  99.8124981   6.0194582  65.0638485  33.9085889  91.5323067
  64.1419172  34.0970492  91.3569164  65.2251339  34.2859030  92.3970890
  13.1750059  31.6103315  32.2642589  12.4231505  32.1231580  31.9676852
  12.8526700  30.7096314  32.2969985   3.7408197  45.8970308  89.6807384
   2.8637463  45.5310154  89.5666885   4.2801481  45.1500988  89.9404526
  26.9950891  55.2963066  87.8773689  26.2040186  55.0184155  87.4156189
  27.6503611  55.4019690  87.1876717  38.2228923  55.5764771  90.5999565
  38.4110594  54.7993422  90.0737572  37.6002121  56.0774326  90.0731373
   8.9734942  80.8103752  57.0689487   8.8772082  81.7123604  57.3745394
   9.1240203  80.8913517  56.1271334  26.0938668  41.0302114  64.9200869
  25.4258418  41.4860916  64.4080830  26.0796475  40.1328087  64.5873833
   0.6596231  36.7398238  66.3212967   1.2273090  35.9981036  66.5306282
   1.2498872  37.3962593  65.9512854  85.3988934  82.3962593   6.3997424
  85.7079029  82.6189613   5.5215919  84.4476795  82.3366833   6.3109857
  49.2598772  81.9417286   7.9597014  48.3642960  81.7830563   7.6613939
  49.3407536  81.4240742   8.7607765  46.3111353  60.3982258  67.8797293
  46.8210506  60.8557272  67.2112179  46.9178247  60.2914762  68.6123753
  77.9765797 105.9066391  19.5579004  78.4996319 105.5821514  20.2909446
  77.0782089 105.9113789  19.8882687  47.6562405  74.0594530   7.2681874
  47.6650047  74.9151134   7.6971370  46.8029213  74.0165997   6.8366349
  22.5742364  44.7087955  73.1533337  22.6376081  45.6522274  73.0044794
  22.5527000  44.6175337  74.1059303  26.7085123  34.8879099  50.7156992
  27.2589707  35.2119303  51.4286089  25.8870006  35.3701997  50.8092260
  42.6538229  15.8510482  78.6555386  42.2809505  16.4752007  78.0329370
  42.5979137  15.0057745  78.2098722  19.7667956  42.6303768  43.3058548
  19.3240118  41.7955732  43.4584427  19.2783606  43.0328131  42.5877285
  44.8220539  78.0407524   5.9676689  44.1489458  78.6110687   6.3390082
  44.9020195  78.3258200   5.0574088 107.0280361  87.8702927  89.8109150
 106.1707878  87.5022030  90.0250721 107.5541115  87.1150494  89.5480824
  21.2758636   4.6577850  70.8966255  21.6445613   4.3073189  71.7074680
  20.6828642   3.9729267  70.5875111  30.3227329  59.3023443  86.4047527
  29.4094682  59.2888355  86.6911030  30.2980900  58.9642668  85.5095768
   2.1023647  19.7156489  15.6356978   1.1636851  19.5294619  15.6568372
   2.4780677  18.9953756  15.1294518  51.4183474  98.4549427   4.9788249
  51.5588140  99.3836594   5.1631701  50.6706381  98.2127285   5.5251741
  63.9972305  89.9665356  16.0175490  63.0400944  89.9599648  16.0087121
  64.2470980  89.6034431  15.1678669 108.8906384  32.6341367  92.2717571
 109.0876389  32.0483303  93.0026817 108.0851650  33.0804944  92.5329208
  70.9984636  57.9428911  24.5035410  71.3908434  57.4805927  25.2441859
  70.2697611  58.4321499  24.8854399 107.8085041  44.5567417  55.5781317
 107.7134514  45.1457787  54.8296452 108.7521553  44.5175028  55.7337189
  53.2836246  15.9346950  54.4030285  53.1621170  16.2278271  53.4999561
  52.4047232  15.6960917  54.6976995  44.1316557  55.4612827  90.1320839
  43.6046028  55.0468588  90.8152390  43.4949350  55.7379103  89.4730759
  93.4807777  89.1752338   7.4674034  93.2033920  89.9931717   7.0547700
  94.0873528  89.4479561   8.1558287  10.2389717  39.2280340  61.8327045
   9.7781819  38.4412527  61.5413666   9.5603770  39.7656751  62.2409725
  27.1920061  30.4314971  64.4574404  27.3813772  30.9081411  63.6492443
  26.4201784  29.9048591  64.2496729   4.2370355  49.0543556  63.1986189
   3.9851719  49.5958662  62.4505758   3.5053334  49.1357136  63.8103580
  45.6111908  35.1328850  67.4838591  45.9305859  35.9451675  67.8768206
  46.2100124  34.9674654  66.7556572  14.8568678   7.3509508  87.1788597
  15.6147730   7.4170673  87.7597523  15.1847649   6.8855870  86.4093399
  67.8595066  95.9905243  19.6585262  67.2114372  95.8656597  18.9652431
  67.9955578  96.9374371  19.6914899  55.6815767  19.4055009  58.8021421
  56.2117004  20.1543522  58.5293293  55.1050377  19.2360580  58.0570745
  16.4058435  49.6963263  75.5818033  15.8460021  49.8338556  76.3459349
  17.1124196  49.1347265  75.9005260  13.8721836  69.6006727  78.1244326
  14.7047806  69.8544121  77.7261496  13.5662651  70.3932285  78.5654593
  50.5228662  60.4357243  92.3953152  50.2567339  60.4262733  93.3147240
  49.7063684  60.5577135  91.9108677  20.9057283  24.1604066  42.4194002
  20.9469247  24.6556044  43.2375193  20.0408936  24.3607831  42.0614338
  11.7830944  84.9691010  92.4220467  11.4852774  85.8561039  92.6239300
  11.0222578  84.5456696  92.0244789  23.5533428  24.7301960  75.2509212
  24.2649889  24.3504620  74.7355604  23.6427045  25.6746292  75.1232815
  46.4982367  67.2610474   6.0370713  45.7815218  66.7917109   6.4640111
  46.1456060  67.5111532   5.1830626  13.8034165  49.4080353  71.4779758
  13.2513523  48.9861107  70.8196211  13.2489884  50.0926208  71.8523884
  22.1085858  71.8528032  91.2427902  22.3536444  72.7775192  91.2099743
  22.9420066  71.3829565  91.2130642 108.8468552  24.3269706  25.4825163
 108.5571480  24.3620706  24.5708847 109.7013664  24.7582698  25.4790521
  15.9880495  79.6839142  87.8929424  15.9323967  78.7495184  88.0930519
  15.1522470  79.8893452  87.4740601  10.8429563  49.7935629  24.0682483
  11.6996968  49.5010996  24.3792009  11.0387456  50.3476906  23.3127069
   5.6870514  30.3590608  84.3070698   6.4587420  30.0794339  84.7995472
   5.9462899  31.1888552  83.9064884  27.3938346  65.3169632  64.8792458
  27.8135347  65.4690790  65.7259703  27.5573397  66.1191797  64.3833160
  23.7576222 104.2926598  57.9844379  23.7440348 104.0527058  58.9109707
  23.5394192 105.2246094  57.9751587  68.7048292  97.0453167   1.6729732
  69.2080069  97.0213318   0.8590501  68.9900875  96.2684059   2.1538854
  54.2246485  40.4704714  92.2834301  54.4916153  39.6081448  91.9650650
  53.2767057  40.4912806  92.1522903  14.3448400  60.2496529  80.7187176
  14.1402149  60.4999399  79.8177671  13.9255965  60.9223747  81.2552834
  29.1377854  74.0498543  64.1210175  28.5917234  73.3224583  64.4192553
  28.7807465  74.2815399  63.2636499  42.9068851  45.8504581  76.7771292
  43.5978270  45.4845047  77.3293161  42.1685982  45.2515507  76.8888283
 107.6766872   0.6344290  17.7079988 107.2378159   1.2730542  17.1460521
 108.2250214   0.1262607  17.1102297  34.4428968  29.3376422  15.7032466
  34.4160342  30.1738715  15.2382433  35.3693032  29.2050362  15.9042931
   4.9197212  82.8577900  82.5109386   4.0093967  82.7659321  82.7921867
   4.8645604  83.2886791  81.6579914  35.6259632  49.5922756  78.5037470
  36.4120317  49.6551085  77.9611826  35.7535505  48.7956667  79.0188885
  99.3017483  93.2367897  30.6181931  98.5367203  93.5446167  30.1321769
 100.0387383  93.7057590  30.2268481  66.8021345  86.7053890  24.6500397
  66.0751390  87.0410061  24.1255713  66.4775610  86.7260456  25.5502939
  48.1941557  60.6878805  89.4642448  49.0196943  60.2047729  89.5006943
  47.9258204  60.6347036  88.5469723  49.3852091  64.3321180  90.0535488
  50.0508785  64.0407658  90.6766319  49.6041727  63.8785267  89.2395878
   3.8945994  31.0421085  28.7125158   2.9530996  30.9110236  28.8248801
   4.0081173  31.1682081  27.7704716  88.8626003  18.5486138   5.9044790
  89.2109776  17.6610744   5.8199877  88.2996273  18.5123324   6.6777694
  24.1155791  23.6239386   6.1157805  24.7149754  24.2863536   6.4595306
  23.3386135  23.6929893   6.6705692  59.2853689  45.6903648  88.8727188
  58.5669279  46.0132885  89.4165802  59.2867088  46.2683773  88.1097412
  21.0221887   5.8700192  20.2889395  20.7009006   5.3094178  19.5827305
  21.5275431   6.5501940  19.8437309  76.8293715  55.4843569  23.5009909
  77.6854134  55.6191158  23.9075160  76.4464569  54.7531796  23.9857435
 102.7240944  12.6237440   5.1966220 102.2729111  12.4600267   6.0247892
 102.7670765  11.7661345   4.7736686  57.6291227  63.6725235  81.7914677
  58.1416702  62.8947830  82.0120239  56.7239237  63.4238005  81.9785213
  87.9801750  97.1802521   5.2139002  88.5456657  97.8185272   5.6487072
  87.9777241  97.4490547   4.2952222  90.2218342 102.3561096   2.5681040
  90.2877712 103.3081913   2.4944441  89.7586632 102.2112274   3.3931583
  46.1029339  57.3716354  93.1132126  46.0653925  57.7599287  92.2391129
  46.0068750  56.4313602  92.9619312  25.9835911  79.8719120  53.6840582
  25.0651407  80.0466919  53.4787893  26.1171556  80.2714920  54.5435524
  18.4040380  33.1665468  55.8274651  19.1241026  33.5848141  55.3554583
  18.5673499  33.3752394  56.7472506  16.7923880  36.3969541  78.2235765
  17.3843026  35.7066107  78.5224056  16.0006368  35.9326243  77.9519892
  10.0686419  31.9926667   0.9472118  10.2129519  32.6221085   0.2406655
   9.7257781  31.2142467   0.5081909  63.9974928 103.0210018   0.2860399
  64.5098448 103.7216377   0.6895806  64.5018721 102.2258663   0.4580678
  51.4244461  66.2418985  83.0410099  51.9839811  65.4993105  83.2684231
  51.9258642  67.0111847  83.3112049  13.1288791  42.0114517  42.6169205
  13.2607448  41.8804264  43.5558987  13.4549177  41.2064028  42.2146368
  11.6411722   6.0535038   9.4005102  11.5399635   6.6733432  10.1228583
  12.5753510   6.0777026   9.1932511 110.5600452   7.7047354   0.3780129
 109.6995926   7.6189530   0.7884825 110.5252552   7.1165794  -0.3763706
  40.7967854  46.2813902  72.0532084  41.1496401  46.2177134  72.9407167
  41.5676594  46.3894796  71.4961576  44.6973944  53.1173468  73.5656166
  43.8700485  52.9301167  74.0090990  44.4875669  53.0609512  72.6334000
  13.9583111  48.9602375  37.5589156  13.1794393  49.1728973  37.0447493
  13.9585245  49.6013880  38.2696629  53.0078888  60.1967192  86.5103245
  53.5809422  59.4358683  86.4157581  52.5656271  60.0607967  87.3482704
  21.8314600   3.9650908   6.4542365  22.6435113   3.9938211   6.9601792
  22.0553041   4.3747047   5.6185675  21.2456131   2.8451210   0.6667645
  20.6307960   2.6984257   1.3855916  20.7397819   2.6556727  -0.1234739
 108.4534645   4.8973233   0.9584677 108.1893635   5.4298860   0.2082264
 107.6290703   4.6359518   1.3687113  43.9327717  50.3173780  86.5945911
  43.0563259  50.2588463  86.9749165  43.8942432  49.7601557  85.8172512
  16.8542624  19.5132196  68.7857485  16.9060290  19.4685233  69.7405005
  17.7593434  19.4102085  68.4917259  74.3171024  87.9512405   2.2832124
  74.0110064  88.5861206   2.9308745  74.9007177  88.4525013   1.7136858
  10.5233085  68.9858103  65.4488420  11.1617041  68.8725042  64.7446775
  10.5426872  68.1559753  65.9255219 113.6566830  36.5690494  10.3286743
 112.7619457  36.6831899  10.0082946 113.8752270  37.4086595  10.7330561
  87.5706863  81.4337254  26.8939638  87.7175903  80.7183170  27.5127053
  88.3725929  81.9547367  26.9354439 102.4270344 104.2019558  18.3899415
 101.8837357 104.5103455  17.6647079 102.9399395 104.9679852  18.6475551
  73.5537529 105.4035473  11.6454065  74.2146587 105.8851528  12.1428978
  74.0197706 105.0876808  10.8712709  70.5424547  90.1089191   3.5350037
  70.5562878  89.9627304   2.5891337  69.8719406  89.5082855   3.8604048
  75.3288221  85.7861042   3.8011533  75.2850437  85.0406837   3.2022700
  75.1897526  86.5507412   3.2423928 101.9163895 100.1548195   0.8064169
 102.2517586  99.6619797   1.5553293 101.3683987  99.5284748   0.3335064
  28.0029678  40.1167822  85.8313370  27.3437190  39.5775843  85.3944302
  28.5758662  39.4870162  86.2688446  65.4421997  60.1533175   6.6200411
  65.6218767  59.2132807   6.6033375  66.1297846  60.5187321   7.1767545
  27.3387289  43.1336308  61.5851402  27.9424715  42.4819660  61.9415998
  27.4943900  43.1131554  60.6409073 108.7221813  17.3701942  19.8359060
 109.3400288  16.8038249  19.3736041 107.8931141  16.8925273  19.8090041
  37.7589059  47.9304314  76.0980129  38.0797458  48.7127256  76.5466833
  38.5512614  47.4497366  75.8585644  31.7014265  59.9290276  91.7809105
  31.1064482  59.7872972  91.0446072  31.9119835  60.8619928  91.7425537
   8.4270996  26.0041380   5.7508868   9.0604812  26.0178661   6.4684319
   8.9152867  25.6507897   5.0072134   5.9320778  44.6330214  11.7197776
   5.6713080  43.9947605  12.3837459   5.8436370  45.4810047  12.1549046
  81.7854214  86.5906525   2.4890274  82.2087288  85.8050919   2.8353375
  81.2587070  86.2749767   1.7547625  24.7526717  29.2952085  80.7208920
  25.5068493  28.7262964  80.5666542  24.9303102  29.7040272  81.5679741
  22.2078776  46.9736671  47.4178410  22.3853946  47.5993729  48.1201315
  21.6954279  47.4694347  46.7792177  29.4745851  48.8584614  91.3535404
  30.3061414  49.3122959  91.2164974  29.4513631  48.6797237  92.2936153
  12.6073825  15.7994533   7.7343392  12.6659942  14.9181056   8.1031519
  11.9393802  16.2362671   8.2627308  25.7673860  34.6906686  73.3434820
  25.7368517  35.6105423  73.6064148  25.3803849  34.6788096  72.4680853
  52.8555536 100.6083679  14.9066162  53.0598211 101.0367012  14.0753317
  53.4693813  99.8755360  14.9556339 111.0999680  65.0593758  76.0882378
 110.4143429  64.4785929  75.7583237 111.5352249  65.3873062  75.3013134
  46.5375853  55.9829950  67.0629883  46.9923782  56.4496469  66.3618231
  45.8141232  56.5609932  67.3053837  18.1923580  43.8914347  90.0942993
  18.8629901  43.4986353  90.6530380  18.6844718  44.4107771  89.4584179
 100.4210281   1.4989474  36.3087726 100.9223366   1.8858992  35.5910039
  99.5210361   1.7859656  36.1543322  45.2204943  60.5971622  59.8492861
  45.0040579  61.3863754  59.3527746  45.7729387  60.0860691  59.2578268
  72.9663467  36.2825966  72.7774096  72.3693085  36.2487674  72.0299911
  73.4658146  37.0889401  72.6486731 112.5202370  63.2250881  86.5122604
 112.4397087  63.9434147  87.1397591 112.9892349  63.6067247  85.7702160
  54.9405146  37.7116132  91.8000031  54.3086481  37.3333740  91.1885166
  54.6582079  37.3994803  92.6597214 112.1859646   2.5905406  13.7884402
 112.6530933   2.8153399  14.5931029 112.6428413   1.8188144  13.4538853
  43.3799982  92.4207211  26.9345355  43.2659626  91.7549706  27.6127696
  43.9960909  92.0289421  26.3155293  41.9583464  60.1306009  90.4476452
  41.4000225  59.3842363  90.2298164  42.7406693  59.7391510  90.8361816
  42.8092909  57.0797300  88.3194351  42.8860474  57.9283905  87.8834152
  42.9272604  56.4387465  87.6183987 100.3149986  17.2465742   1.7852244
 100.5480289  16.3485670   1.5496153  99.3864918  17.2010708   2.0133696
  66.1265802  96.0588646  35.2205110  65.4747677  95.7382011  35.8438468
  66.4511776  95.2699757  34.7863197  54.6560144  48.8159704  82.3766899
  55.1415777  49.1106462  83.1471634  54.3976355  49.6238089  81.9329929
 104.2513180  22.8662825   3.4976870 104.0265942  21.9741869   3.2333037
 103.9693832  23.4118843   2.7634797 113.1144714  18.1639171   6.3626033
 113.1079578  17.7854657   7.2417867 113.7974834  18.8337398   6.3952249
  45.3681278  41.4815807  76.0436487  45.2417850  41.2609768  75.1208258
  45.8955574  42.2802258  76.0289526  54.4877291  97.2061157   3.7069097
  55.3456497  96.7840385   3.7522498  54.4487572  97.7542782   4.4906411
 110.9377289   0.1543240   5.5359030 111.0458565   1.0668525   5.8039171
 111.2834835   0.1241190   4.6438429  32.7184367  58.8605118  52.7412605
  33.4491110  59.4584656  52.8987217  32.1463037  59.3350363  52.1381664
  39.2836666   5.3446227  37.4238110  38.9309716   4.4869170  37.6608348
  39.6581340   5.2170640  36.5521836  24.6073437  22.5649619  14.9918401
  25.5429125  22.7500916  15.0735080  24.3669558  22.1713924  15.8306170
  92.3920345  97.2670078   3.7246355  92.4262238  96.4220619   3.2761481
  92.7387333  97.0883846   4.5987761  75.5176592  97.0806122   0.9795227
  75.9777117  96.2424564   0.9339276  76.0999680  97.6978588   0.5366357
  37.5435114  19.8921156   8.9793438  37.0219374  19.3219090   9.5441937
  37.8033829  19.3319595   8.2479584  18.1711352  61.7836094  74.4901848
  19.0711379  62.0465136  74.6828222  17.9489350  61.1634207  75.1846075
  37.8122759  40.9107351  61.9532108  37.6066136  41.7284918  62.4062109
  38.4189463  41.1676216  61.2588120 110.6052017  15.3261018  22.7427292
 109.6798801  15.1194489  22.8742623 110.6944656  16.2293375  23.0467534
 107.2853184  40.1121712  83.0272102 106.6689873  39.7733593  82.3779202
 108.1485653  39.9307036  82.6555729 105.7188892  35.3348327   2.9066104
 106.4894009  34.7763395   3.0097115 105.9841728  36.1787939   3.2721061
  50.8460379 105.5069160  50.6532669  51.6287994 105.5379677  51.2033176
  50.5745173 104.5892906  50.6746674  23.1998253  54.3346548  65.4212475
  22.9977202  53.5239506  64.9541903  22.4201512  54.5078707  65.9488249
  31.0570979  43.1655979  78.2941961  31.4610028  43.9119720  77.8514624
  31.0885406  43.3926821  79.2235374  38.1730771  58.8004351  90.2072239
  38.4598708  59.2726326  90.9888935  38.9375639  58.8041019  89.6312237
  16.9223869  60.1981783  91.6710854  17.6668906  59.7397614  91.2814713
  17.1929419  61.1159945  91.6966152  92.8343582 105.9043407   0.6596673
  93.4907532 105.2669144   0.3784867  93.2785225 106.7498016   0.5952739
  34.3510580  66.2996960  83.7160015  35.0416017  66.9187832  83.4791279
  34.6328974  65.9361982  84.5554543  55.3107166  85.5122852  26.7756581
  55.4752636  86.3217068  26.2919402  55.2734184  84.8337650  26.1015272
  26.3510036  17.1628273  46.6872168  27.0233130  17.6659918  46.2278080
  25.6103373  17.7646077  46.7614412  40.9865665  43.0709219  83.9439869
  41.4581680  43.8647461  83.6916637  41.6084003  42.5848341  84.4855404
  51.3831520  46.5763617  87.6588821  50.8834457  46.6230726  88.4739494
  51.3423443  45.6542301  87.4054241  46.2678385  48.2713604  74.8637676
  46.9369316  48.9404249  75.0083351  46.7361164  47.5519085  74.4402933
  25.7160401  69.7639799  60.1132488  26.2468338  69.2249727  60.6997395
  26.2852907  69.9330282  59.3625116  -0.0664473  92.8525925   4.4134578
  -0.2176714  91.9282913   4.6110114   0.8611727  92.8993893   4.1820312
  18.9408576  61.1208963  61.4793873  19.7385681  61.2253904  60.9607601
  18.5649228  62.0002270  61.5203762  52.6560497  28.3596087  65.5711079
  53.4190369  28.9333439  65.5010128  52.4339104  28.3691692  66.5021229
   3.8474122   8.9005405   3.8353255   4.5094839   8.3539647   3.4120670
   3.8114911   8.5788953   4.7361508   4.9374682   2.4134818  17.6233006
   5.7303870   2.4994378  18.1525671   4.8915961   3.2302040  17.1262157
  24.5753455  52.7384615  20.0995564  24.8981595  52.1298885  19.4349802
  24.9553895  52.4218702  20.9190488  73.0176163  86.3713264  86.5228081
  73.2412434  86.0992813  85.6327438  72.8373146  85.5528641  86.9852352
  36.9582367  12.4696624  11.6009796  36.0583091  12.5766027  11.9090796
  37.4160957  13.2452929  11.9250083  44.8820066  70.5022764  88.8732338
  44.2977476  70.0631905  88.2551193  44.3273020  71.1495352  89.3086624
  60.5959034  64.6664143  86.0004330  59.8751116  65.2012777  86.3330269
  61.3820696  65.0654316  86.3732147  37.5137210   5.1570743  11.3745344
  38.1363630   5.4688436  12.0313072  36.9318295   4.5691651  11.8561935
  12.1221673  17.6341224   2.1442723  12.9745889  17.2056282   2.0667906
  11.9529378  17.6622236   3.0859748  38.9448643  84.2853069  63.9915180
  38.6970210  83.8713646  63.1648016  39.0243769  85.2153015  63.7793350
  13.7753677  38.4691525   4.2025164  13.9506316  38.9686227   3.4049922
  14.2447746  38.9423728   4.8895043  36.6500282  22.2648716  23.3658576
  37.4610615  22.7713966  23.3223820  36.1018682  22.7433395  23.9878058
  11.8815994  26.5199804  28.6394358  12.1525848  26.3851237  29.5475173
  12.6656508  26.3289952  28.1246328  43.1861162  64.9320507  48.3856964
  43.2604837  65.7799387  48.8236284  43.9559031  64.8870707  47.8185606
  91.9425964 100.6568813  41.1903334  91.6273594 101.2870026  41.8382502
  92.1987438  99.8917198  41.7052650  81.3477802  85.5122089  85.8333778
  81.2669086  86.1852264  86.5092087  81.6973591  84.7500229  86.2950039
  64.4865322  84.2145729  54.8896694  65.0047302  83.5565567  55.3530455
  63.7051535  83.7436390  54.6000004  27.4458718  69.3000841  53.5862064
  27.2819233  68.4796858  54.0512848  27.2879744  69.0893936  52.6659298
  50.2400208  99.6715736  90.8842182  50.1803303 100.0184536  91.7743492
  49.3997717  99.8943615  90.4834938  61.9317532  70.6239271  86.9360352
  62.6899767  70.0472355  86.8424797  61.9272232  71.1457062  86.1335659
  80.5295372  62.6615572  78.3222771  81.2195778  62.0599270  78.0427742
  80.7713413  63.5013676  77.9317856  55.3924084  67.8596640  84.5640945
  56.2950039  67.9130459  84.2499161  55.3096151  66.9689131  84.9045944
 104.2997742   6.8698817  25.4470181 104.5765018   6.9386625  24.5332766
 103.4025002   7.2032166  25.4512691  62.9335117  77.2108841  69.5345116
  63.8004875  77.2493172  69.9383736  62.4145985  76.6724348  70.1320314
  44.1867542 101.9272900  70.5680275  43.4109211 102.3901081  70.2516222
  44.8375750 102.6158905  70.7040358  62.4984217  97.1784592  88.3169842
  63.4101772  96.9160652  88.4437752  62.0411253  96.3633537  88.1103230
  72.4017715  86.5887928  91.5090656  73.1432104  87.0040417  91.0685253
  72.5858402  85.6509972  91.4553070  48.7353516  66.3043261  25.7013154
  49.0206099  65.4597950  26.0500622  47.7956915  66.1973858  25.5535555
  16.3519287  20.3049707   3.3627304  16.4160371  21.1458397   2.9098949
  16.4820707  19.6520364   2.6750007  48.6813545  84.1660309  86.8747044
  48.9582634  84.7139740  86.1403275  47.7535629  84.3712234  86.9901466
  24.3776822  17.1338356  18.4907579  24.8934031  16.3380599  18.3603561
  23.8388562  17.2018957  17.7025533  68.4467363  77.2127199  75.6046820
  68.3736610  76.4893675  76.2273026  69.0817022  76.9076872  74.9566031
 104.8432255 106.8976974  10.3530991 105.4849911 106.5559578   9.7305429
 104.2065620 106.1900234  10.4535079  48.7217808  80.5186272  49.8625898
  49.5969629  80.1653957  50.0223112  48.2081985  80.2376270  50.6198931
  17.1028578  36.1492062  30.2076149  17.4080956  36.5126371  29.3763638
  16.1638093  36.3343501  30.2195430   0.0094524 107.2932429   0.6888092
  -0.1940093 107.1737968  -0.2388588   0.9561720 107.4328395   0.7103309
  61.0553503  68.4662199  67.1584034  60.9783173  68.1235027  66.2679863
  61.1252451  69.4141054  67.0449877  26.7511225  21.6052532  10.1362514
  27.1186972  21.9083524  10.9664631  25.8523679  21.3543606  10.3496230
  29.6609044   9.6578771   7.7614129  29.3748569   9.1427511   8.5157692
  29.7026205   9.0271497   7.0426118  45.7283878  80.8631802  36.1696529
  46.1557102  80.0148964  36.2882113  46.3144684  81.4882946  36.5962267
  58.7031317  73.1709719  65.4000950  59.4774675  73.7213898  65.5170298
  58.1034660  73.4511662  66.0915613  61.6318607  86.8391132  52.2854996
  61.6620588  87.7855015  52.1452999  61.9069767  86.7228031  53.1949043
  93.3148956  60.6671810  73.7752867  93.2402420  59.9376059  73.1601620
  93.4322453  61.4377975  73.2197523  55.4410648  68.2138824  55.7852697
  54.9814320  67.4029589  56.0029221  56.2938547  67.9258394  55.4596663
  21.3570786  15.5964756   7.9826140  21.6211438  16.0732734   8.7694842
  22.1527243  15.1481843   7.6958847  46.9043875  72.9807377  76.1300516
  46.3670635  72.4124193  76.6819000  47.7617264  72.9868603  76.5556860
  61.8484974  73.4164572  72.7223539  61.5565205  72.5051260  72.7437544
  61.8451977  73.6906195  73.6394453  43.0287457 101.9569397  73.7279987
  42.8055382 101.7554569  72.8192568  42.9232168 101.1255836  74.1905308
  60.5736017  78.7619638  87.0278740  60.2539062  79.6634388  86.9908810
  61.4935493  78.8233423  86.7706490  67.5879765 104.9616146  82.2942257
  68.3616877 105.2650452  81.8193245  67.1990013 105.7592773  82.6529121
   3.6562845  23.0839896  18.4819746   4.0488628  22.9174781  19.3389380
   3.0601135  23.8180518  18.6301875  15.0519407  39.8903966  14.5192742
  14.0986669  39.8961735  14.6056867  15.3057611  38.9909983  14.7263730
  51.0483742  88.7086296  23.1921935  50.7817602  87.7986622  23.0613899
  51.9762182  88.6557770  23.4214187  65.9346151 100.9876728  67.5355577
  65.5595446 100.1227283  67.7011347  66.4823103 100.8667469  66.7599010
  35.5591798  39.2220616   2.5995064  34.7852850  39.3709850   3.1427747
  36.1215973  39.9772286   2.7716660  57.1873617 106.8345070  65.7575464
  56.6633511 106.2233543  65.2397299  57.1130562 106.5122700  66.6558075
  41.4858580 104.6972752  60.7519197  42.0167017 104.8944569  59.9801970
  41.8800402 105.2165127  61.4528084  74.8148680  79.0622139  61.5772724
  73.9155960  79.0160084  61.2526035  74.7511292  78.8038015  62.4967241
  46.8281794 103.3308220  33.1411648  45.8769083 103.2245731  33.1354523
  47.0101404 103.8996410  32.3931217  30.6067824  31.3069105  25.3823376
  31.1642790  30.7902336  25.9641242  29.7209215  30.9869957  25.5530357
  68.0346394  95.1733875  81.9325256  67.6424265  95.6929588  82.6342678
  68.9074707  94.9522972  82.2573566  75.3137541  79.6060705  74.1990185
  74.8802376  80.4543114  74.1052914  74.6945095  79.0745878  74.6993113
  86.2899494  66.2317944  70.6823254  86.1175632  67.1140718  71.0111189
  87.1817589  66.0384846  70.9713364   6.8254107  57.4288273  30.2321005
   6.9559664  57.7703047  29.3474650   5.9980154  56.9499111  30.1842856
  99.9992657  86.5247440  87.8403854  99.9443531  87.2411728  88.4727955
  99.9313259  85.7310486  88.3711147  71.9604588   8.5555124  47.1682405
  72.1775579   8.1429827  46.3322258  72.6252747   8.2306069  47.7754402
  29.5421243   7.3744386   6.1711556  30.0169992   6.5450490   6.1178666
  28.6877084   7.1384454   6.5324175   2.6801312  22.1643496  13.7315047
   2.5847930  22.3453116  14.6665967   2.1805769  21.3600159  13.5910547
   3.6236734  14.1041582   0.1102743   2.7799005  13.7097996   0.3310880
   4.1744393  13.3641069  -0.1450911  65.2061778  83.3216578  92.7901287
  65.2354604  82.7662642  92.0110840  64.2846876  83.5662324  92.8754130
  46.5809965  54.7726727   0.5405932  46.2066841  54.5646381  -0.3154701
  46.4176655  53.9918184   1.0695747  52.1963072  79.8386478  84.2044353
  52.7415371  79.3428040  83.5936069  51.5105057  79.2243576  84.4662666
  78.2802534  86.2316895  26.2391949  77.9468155  85.9266567  25.3953886
  78.7453365  85.4768562  26.5999746  16.2068415  44.1004324   0.3021676
  15.5395579  43.5764599   0.7453556  16.1763048  43.8067293  -0.6083478
  91.0989952  89.8472404  68.5598135  90.7289886  89.7497368  69.4372082
  90.6856346  90.6374264  68.2120132  66.1935711  56.6502857  87.1744633
  66.7360020  57.3798895  86.8749905  66.7156696  55.8704948  86.9858742
  29.6577191  20.8919430  10.8777177  29.3894529  21.6080260  10.3019643
  29.1064310  20.9895039  11.6541171  54.7911310  79.3327665  51.4172173
  55.3334665  78.7201548  50.9204149  54.3011665  78.7797356  52.0257616
  58.4744740  61.6754913  89.6348190  59.1029787  61.7895937  90.3476906
  58.8046551  60.9240007  89.1423988  51.7172050  80.9877014  72.1289110
  51.4479733  81.8188763  71.7378807  52.5627613  80.7951450  71.7237186
  66.4220715  84.6420574  88.5500717  66.5491533  84.7610760  87.6088428
  67.0378923  85.2534199  88.9540958 105.0557137  10.6542397  84.2741871
 105.7803822  10.7425177  83.6550808 104.2696857  10.6845510  83.7287807
  22.7080417  71.0832787  79.3567324  22.6170444  70.9239578  78.4172773
  23.3997989  70.4832888  79.6355152  13.5242891   4.1938159  88.0706024
  13.3415639   4.0981004  87.1358967  14.4792020   4.2307961  88.1254196
 105.3280640  42.8943825   5.1059216 105.9705067  43.3187437   4.5372245
 104.6511745  43.5578680   5.2394718  34.6173954  99.4713497  76.9714785
  35.2360153  99.3502522  77.6918125  34.0960026  98.6686325  76.9660378
  34.4353080   2.2590806   2.6169777  33.9602160   2.1954751   3.4455141
  34.6717429   3.1839654   2.5468493  80.0926399  87.1416950  45.4267263
  80.5539703  87.1542358  46.2653255  79.5864105  87.9540539  45.4196835
  20.7078314  17.7921045   3.4268439  21.1032844  17.0443356   3.8748303
  20.0221610  17.4085212   2.8800812  28.4912419  41.1183453   4.1252330
  27.9448843  40.4263830   3.7525278  27.9583788  41.9100904   4.0515485
  38.0602813  17.7493787   1.7490248  38.6771917  17.3503995   2.3625980
  38.6070561  18.2838702   1.1731865  56.5969467  88.5320187  92.9377079
  57.3961401  88.3405399  92.4469376  56.2645531  89.3406773  92.5480652
 104.1651726  36.2236190  10.6933582 105.0030422  35.7608008  10.6954539
 103.5538197  35.6140661  11.1067760  63.2204580  89.6338940  76.9510412
  62.2878885  89.5532322  76.7509317  63.4443760  88.8106441  77.3850346
  24.2791796  59.3179512   7.0341194  23.6691022  59.5778847   7.7243876
  24.0445137  58.4113598   6.8359804  46.2670231  93.8768578  81.1725998
  46.6070080  94.5130634  81.8017960  45.7071829  94.3910313  80.5908394
  16.1341631  70.2798462  20.7886434  16.8156242  70.3395033  21.4581847
  15.5624592  71.0278606  20.9614635 109.0692520  95.3891850  63.5998487
 108.8962269  95.9622860  62.8529549 108.3042908  95.4952049  64.1653728
  13.4810579  76.8840933  14.1867661  13.1843162  75.9869814  14.0338957
  13.3062720  77.3379517  13.3623290  44.2515755  71.1971998  40.2155542
  44.7994518  71.6224432  39.5558333  43.3643579  71.4991808  40.0209141
  44.1145086  48.0973911  16.6706431  43.4636927  47.7950430  16.0371971
  43.8132095  48.9693308  16.9259429   0.6597684  68.0379629   0.6829209
   0.3447156  68.3558655  -0.1631955  -0.1032028  68.0922890   1.2583821
   7.4061584  28.1150198  19.0259552   7.1024793  27.5767064  18.2950437
   8.3473337  28.2092476  18.8791800  94.6563339   4.3870887  88.5486126
  95.4706573   4.4012618  88.0457211  94.3152618   3.5009882  88.4272385
  79.6125317  52.5610209  90.7363415  80.4651451  52.9957390  90.7536697
  79.8070478  51.6443539  90.9315777  93.5879326  95.3250599  60.6216764
  93.1805134  96.1486912  60.3535700  94.1365433  95.0759697  59.8778963
  31.4802599  25.1511264   3.8718110  32.1942949  25.7490468   4.0928966
  30.6959486  25.5758643   4.2192107  36.7857814  27.9413319  10.3512108
  36.0648131  27.3822117  10.6407285  36.6268015  28.0723381   9.4164413
  59.7028017  86.6510296  79.6941233  59.6901608  85.7065678  79.5389700
  59.1574383  87.0155811  78.9970493  68.6152029  56.8207407  18.3084321
  67.9854488  56.2113571  17.9233408  68.2279110  57.6849937  18.1694865
  69.3642282  87.9027367  73.5333967  69.7593737  88.2017994  72.7144623
  68.5806799  88.4434986  73.6327505  64.9037838   5.4051220  65.6216860
  64.5126772   4.5543760  65.8204365  65.2103090   5.7313478  66.4677620
  15.6177402  85.2608204   9.5904064  15.0554776  84.6387482  10.0520492
  15.5755007  86.0587025  10.1175058  90.4192352  99.2755795   4.4910482
  90.7559395  98.8370895   3.7096414  91.1182499  99.1818810   5.1382202
  22.2193813  32.7612090   1.2922536  22.3602939  33.5942745   0.8423878
  21.2741184  32.6189947   1.2424344  73.5082531  99.2245102  73.6236954
  73.4394550 100.0723743  74.0626001  72.6395369  98.8341141  73.7193441
  58.3077669  88.0095577  77.9028416  57.8802490  88.2343388  78.7292385
  57.5881100  87.9150391  77.2788286  83.7600803  87.6811123  55.3255320
  83.5204124  87.9430294  54.4366074  84.4814205  88.2646465  55.5608892
  69.8552752  96.1017323  86.3848877  69.4121504  95.9270668  87.2151661
  70.6489754  96.5762043  86.6321754  21.5776443  37.2286606  39.2212868
  22.5095725  37.0785332  39.3800354  21.5101790  37.3334241  38.2722330
  92.2960091  68.8389492  85.9588623  92.1552181  69.1294336  85.0577354
  93.2103729  68.5565281  85.9793758  82.3136711  79.4023895  83.8137531
  82.0232391  80.1362610  83.2721615  82.9122162  78.9114189  83.2507896
  77.9483414  87.4148750  85.5378056  77.8161526  87.2631264  84.6020031
  77.0931339  87.2422886  85.9315872  68.4298086  61.8005562  82.1605110
  67.6823425  62.3977947  82.1894073  68.9783144  62.0674753  82.8981590
  71.4220428  11.9212604  63.5851812  71.5011120  11.9374692  62.6313925
  72.1954060  12.3908460  63.8976431  97.4334812   4.0314859  90.7413101
  97.8629112   3.9816204  91.5953255  97.6240730   4.9158818  90.4286575
  96.3840866   9.7291207  81.6525555  96.5709972   8.8217866  81.8934727
  97.2112751  10.1896501  81.7936134  76.4785242  73.8082790  58.4992504
  76.0166550  74.4655275  59.0197659  76.2367344  74.0060949  57.5944662
  50.3736210  74.0238476  68.7512970  50.6417561  73.1662512  68.4213543
  50.2619505  73.8939428  69.6930408  73.5459280  81.2963867  67.2359228
  73.3938313  80.6977940  66.5046310  74.4980621  81.3847923  67.2790384
  93.6073971  97.2661877  66.6901636  92.8499317  97.2498703  66.1051702
  93.2306385  97.2597027  67.5700760  97.5587463  78.5917807  85.9916592
  98.3113575  78.0864334  86.2989616  96.8682861  78.4037399  86.6273689
  34.2181301  51.3183403   3.8818431  33.6870837  50.5254745   3.8071093
  34.7311473  51.3400269   3.0740225  59.2240238  93.3373737  73.4776783
  59.7883081  93.5171127  74.2296839  59.7708893  93.5307407  72.7162457
  65.4229498  84.6900177  71.1300755  66.1133385  84.8847103  70.4962826
  65.6378746  85.2288628  71.8914461  64.5611906  95.2086258  79.4201183
  64.3041563  94.7549057  78.6174297  64.4356155  94.5598698  80.1126480
  11.7860031  73.2282829  11.2374222  10.8498383  73.1734324  11.0455406
  12.2050452  72.7435350  10.5263281  42.6337242  28.4769034  10.8401096
  43.4709072  28.2341242  10.4446149  42.1718693  27.6460242  10.9521759
  17.5254095  59.9212217   9.2581141  16.7444217  59.4120455   9.4749713
  17.8779733  59.4974375   8.4755945  77.6158476  87.7952766  66.6624689
  76.7381382  88.0628014  66.3898993  77.6380396  86.8512821  66.5055943
  51.6838694  71.8977785  87.3371887  52.1319962  72.7106094  87.5711060
  52.2922230  71.2057304  87.5964260  36.7576933  81.8740082  64.8737764
  36.8128967  81.9033432  65.8289337  37.6313472  82.1269703  64.5754910
  12.2146952  83.3967304  49.3577337  12.9893541  82.8356075  49.3934488
  12.3836625  84.0798664  50.0065804 105.3901005  25.2394629   3.5939890
 104.8953915  25.5332565   2.8290176 104.9925804  24.4009471   3.8287243
  68.2479239  90.0923157  80.3294086  69.1337729  89.9367142  80.6569672
  68.1060028  91.0300541  80.4587650   9.7483599  39.6893907  18.3578944
   9.7413582  38.7747312  18.6400008   9.1071439  40.1194572  18.9236832
   1.4771833  42.2086811  35.8541226   2.1242487  41.5389967  36.0756302
   1.8830355  42.7090025  35.1461720  33.6291933  30.0895929  19.4950175
  33.9489603  30.7583594  20.1006031  34.4149399  29.7774720  19.0462279
  47.2173214  11.8030703  75.7712221  46.5522718  11.1279976  75.9062004
  48.0038548  11.4511728  76.1880684   8.9843160  19.2419863   7.7742684
   9.1744876  19.9423945   7.1501738   8.9571130  18.4472680   7.2414321
  93.0057621 104.2527580  89.3413734  92.6241684 103.3960247  89.5327377
  93.7069607 104.0684414  88.7164116  20.6576753  85.8623886  29.4064069
  21.5887022  86.0641193  29.4998074  20.5347753  85.7282352  28.4666562
  36.6110086  24.1607904   2.8312039  35.9962416  24.8295689   2.5294966
  36.7053413  23.5682440   2.0854014  61.1437654  95.2484035  80.3922558
  60.5648661  95.6222343  81.0565948  60.9578657  95.7536983  79.6008301
  22.8626394   9.2462015  32.1091199  22.3006606   8.6221284  32.5684071
  23.1778288   9.8346251  32.7951550  17.7625895  55.5207968   7.2559142
  16.8953919  55.7696533   7.5757122  18.2374418  56.3486528   7.1824610
   0.4008821  98.7087536   7.5952989   1.2562884  98.3345318   7.3844153
   0.3496182  98.6661053   8.5501736  47.3685884  45.4663563   1.2585364
  48.0898571  45.6998110   0.6741534  47.7674961  44.8953581   1.9150895
  72.0763636  72.7080011  46.1400747  72.9514170  73.0631590  45.9839249
  72.2321844  71.8203163  46.4625072  70.2596951  67.8784895  54.4282198
  69.4449186  67.9459953  54.9260235  70.4016829  68.7589931  54.0806770
 112.1869659   3.9793363  56.0711861 112.1452045   4.6689814  55.4087114
 111.7387867   3.2346162  55.6702471  77.0509243  88.9256763  69.0852928
  76.8558598  89.8384953  68.8733053  77.2721291  88.5263920  68.2439375
  25.1990271  29.6942091  36.4612651  25.1267791  29.1695237  35.6639457
  25.8965063  30.3219938  36.2724829  52.6384544  66.8420649  90.7607746
  52.8221989  65.9131002  90.9004021  52.8446150  67.2556305  91.5990353
  15.9641182  59.9070168  30.8245659  15.5707943  60.7699013  30.9547877
  16.8721628  60.0914764  30.5844331  56.2697935  80.9229660  83.4517479
  56.0367012  81.8308640  83.2577896  56.0408115  80.4417896  82.6565933
  23.4225082  95.4474258  71.0499859  24.1660523  95.7854652  71.5490913
  22.8781676  95.0049591  71.7012548  94.6225929 104.0747070   9.9389929
  95.1867867 104.6336174  10.4733443  93.7376785 104.2539024  10.2568579
  46.1486149 103.0190754  30.3901172  45.6682491 102.7539825  31.1744714
  45.7062626 102.5644493  29.6732664  78.7068748  56.4372301  11.7265058
  78.6301136  56.1722374  10.8099258  78.0336142  57.1082687  11.8390095
 111.4928913  29.7787094   1.8443355 112.1676922  30.4363608   2.0127380
 111.4290237  29.7399926   0.8900534  56.2461853  99.5692348  81.2257481
  55.5407333  99.9202919  80.6823063  57.0418358  99.7295570  80.7183456
  55.6852770  68.7800360  72.3463535  56.3358688  69.3571615  71.9464922
  54.8557711  69.0404749  71.9459486 105.4790497  21.9431973  61.6626263
 105.8997726  22.8007793  61.7240477 104.6862698  22.1015024  61.1501169
 108.8819981  36.6518116   3.7879732 108.5640621  36.9814086   2.9474285
 109.8072624  36.8962979   3.8066179  11.3894641  13.7018430   2.7637729
  10.5990744  14.2288804   2.6465327  11.6901886  13.9143777   3.6473033
 109.5806694   1.8718062  92.9751968 110.5118370   1.8320762  93.1933594
 109.5598698   2.1801706  92.0692730  79.7005367  46.9420004  85.7015228
  79.1534758  47.5984144  85.2701569  79.2951822  46.1052942  85.4738426
  78.8459587  16.5530527  85.4572773  78.5612106  15.8923650  84.8258972
  79.5664072  17.0071650  85.0202847  75.9386015   6.4936268  81.4771461
  75.6107187   6.6131735  82.3684597  75.3010464   5.9117240  81.0634518
  70.2225637  66.7863369  83.1768417  71.0024929  66.5523148  83.6800098
  70.5238724  66.8179131  82.2688484  75.4431295  88.4822083  64.6237612
  75.3175497  89.0739441  63.8819313  74.5840597  88.4389210  65.0437069
  76.4354706 104.5670128   0.7821529  75.5632162 104.9094677   0.9774122
  76.5361214 104.6919632  -0.1615046  70.4742527  83.0755138  80.2453041
  71.2079430  82.5123787  80.4919052  70.8387804  83.6707020  79.5902348
  57.3201513 104.8086166  77.5710869  56.6363239 104.5112228  76.9709444
  58.0280972 105.1054859  76.9993210  58.3136940  85.8463287  84.4245243
  58.8657141  85.1799107  84.8336506  57.5070620  85.8385277  84.9398041
  11.7349827  17.5435019   5.0826722  10.8018863  17.5050581   5.2926403
  12.1175313  18.0671585   5.7867116  32.0953274  43.4941959  19.0870941
  32.4801612  42.9075432  19.7382247  31.2696624  43.7784863  19.4791245
  57.5670052  68.7546825  83.2715321  58.1240320  67.9797459  83.1978989
  58.0903292  69.3789339  83.7741947  22.2080803  92.7598000  82.4471283
  22.6463509  91.9289112  82.6309204  22.7656722  93.1858349  81.7961216
  87.5108147  96.3259792  89.5134354  87.2946262  96.0003090  90.3871822
  86.6826248  96.2948418  89.0345192  50.4222298 105.9656525  81.0943985
  50.6340885 106.7057419  80.5255222  51.0415077 105.2820301  80.8386707
  45.3950977  88.4808826  92.8766537  45.5092001  88.7370110  91.9614410
  44.9087858  89.2057991  93.2693863  49.9022579  72.9784536  73.7911558
  49.0664721  73.4135342  73.9596701  49.9406433  72.2744894  74.4386053
  67.2992229  79.9559069  79.6008396  67.2441292  80.8609581  79.2941046
  68.1385088  79.6401882  79.2659521 102.4893665   8.6464620  65.4235744
 102.5698471   9.5341301  65.7725716 101.7713928   8.2570571  65.9226751
  62.0470142  67.1155119  77.9413080  62.5468302  67.9304552  77.8935480
  62.7011919  66.4262438  77.8264666  21.8579483  46.6717196   7.4047583
  21.0235381  46.5256405   7.8504622  22.4016237  47.1175098   8.0543137
  34.6192622  30.8988452   9.2150474  33.8863707  31.4968586   9.0684867
  35.3593802  31.3139892   8.7722021  37.0657802  96.1817837  79.7758198
  37.6293635  95.4888248  80.1199341  36.4593530  95.7285500  79.1901016
  78.6193132  23.5956526  39.0443087  77.8489447  23.3944106  38.5130262
  78.3348370  23.4443378  39.9456453  50.5486202  64.7882128   7.1720201
  49.7384548  65.2974844   7.1495664  50.3988838  64.1297483   7.8504241
  25.6508565  85.7483006  83.5479069  24.9057412  85.2022076  83.7985420
  26.3393378  85.1238251  83.3193302  26.2366271  59.0238380  21.6722822
  26.1828303  59.6293163  20.9328675  27.1743703  58.8719177  21.7897081
  58.4194183  83.2229900  85.8802319  58.6926746  83.2379818  86.7974758
  57.7360487  82.5536728  85.8448029  58.5468292  52.6395893  32.6693225
  57.9546976  52.6502848  31.9173265  57.9751873  52.7687073  33.4261489
  64.7195387  53.6086607  10.8558118  64.5273876  53.4761143  11.7841113
  63.9241982  54.0057850  10.5009162 103.0193520  98.3720016  71.9274712
 103.5582924  98.9728451  71.4129257 102.3781967  98.9359570  72.3600245
  88.1374168  78.5625887  61.8064976  88.2142258  77.8438711  62.4340200
  89.0127563  78.9487314  61.7762804  56.6433287  72.2150087  80.6453991
  56.0114717  71.7485762  80.0981998  57.3426390  71.5795851  80.7985020
  23.2850575  73.7921715  77.0166922  22.3998761  73.4931421  77.2246933
  23.1698251  74.3814421  76.2712288  15.8804131  17.6418817   2.2416280
  15.2266991  17.4904144   2.9242322  15.3711295  17.7165329   1.4346027
  65.7684183 104.9076748  51.5663767  66.3448191 105.6429291  51.7746973
  66.1605549 104.1604424  52.0181656  48.8362265  29.6373320   4.0137509
  49.4377804  29.8039651   4.7394222  48.0905628  30.2129245   4.1837791
  43.1262112  15.9890342  32.9835463  42.2317696  15.7519579  33.2284927
  43.0219555  16.7197871  32.3741508  71.4534998  96.7177677  52.1443510
  72.2133589  97.0471096  52.6243305  70.8263731  96.4755249  52.8257227
  86.5071392  74.6232128  37.0843410  86.9707870  75.4606009  37.0907784
  87.1904564  73.9699411  37.2345138   3.7824756  22.5582075  44.0483141
   3.7662697  23.4185863  44.4675016   3.2889634  21.9929218  44.6425581
  38.8454580  86.0486889  48.8753366  39.6845102  85.6769562  49.1474438
  38.4525824  85.3736115  48.3220196  61.2635231  31.4648795   1.1583720
  61.2861824  31.5488243   0.2051292  61.4693546  30.5446339   1.3227327
   4.3273482  87.4874210  92.3986721   3.9348158  88.3552837  92.4933529
   3.9717707  87.1522236  91.5756035  83.7049580  31.0581326  63.4612226
  83.0569077  30.4981780  63.0337763  83.2242393  31.4804983  64.1730881
  92.6332378  78.1157160  80.4004478  93.3365536  78.6808538  80.0807762
  92.3149109  77.6640749  79.6188402  69.9592447  75.7832289  73.7395573
  69.3534279  75.3416681  73.1443739  70.7496977  75.2437401  73.7204170
  38.9322042  21.0984588   2.5470978  38.9208245  20.8861923   1.6137995
  39.3974853  21.9334650   2.5971591  69.7492409  91.0182953  91.5726089
  70.1065350  90.1902103  91.8933105  69.0442991  90.7608795  90.9784508
  51.1606073 107.3427200  92.2280693  51.1499882 106.5748596  91.6566563
  51.4009142 106.9979668  93.0880928  62.8147602  90.9345627  92.3297977
  62.3605061  91.0440445  91.4943886  63.6716986  91.3378716  92.1911240
  40.0902557  39.5025086   3.6836758  39.7493744  39.5396662   2.7900034
  39.4660974  38.9509869   4.1553587   9.1836143  19.7186697   2.9096043
   9.0424049  18.8607299   2.5093138  10.0734639  19.9596095   2.6520249
  80.3870487  74.0248585  90.4860973  80.4405975  73.2847404  91.0907364
  81.2861824  74.1525793  90.1836395 113.5753727  41.7993355   3.4645471
 113.1459045  41.3203478   4.1733229 112.8611755  42.0536327   2.8801858
  63.2962561  83.3564949  85.3277302  62.7512884  84.1410351  85.3889275
  63.6395407  83.3724213  84.4343472  13.5075784  38.4922934  23.2919621
  13.0272007  39.1764808  22.8257489  14.3014133  38.3612347  22.7734256
  31.3502216  94.7556114  87.6981068  31.6552591  94.3999004  86.8634510
  30.9085226  95.5717659  87.4635410  76.3684034  13.3377850  71.5998554
  75.9608650  14.2036927  71.6184425  77.1806669  13.4658313  71.1098957
  64.8180294  92.8782082  81.0306931  64.9314165  92.1554661  81.6479683
  63.9372492  92.7549458  80.6767654  93.4001446  95.7614040  29.1212583
  94.0719128  96.3196373  29.5128417  93.8690662  95.2477360  28.4636235
  53.2659769  69.4196510  83.5943317  53.6419916  70.2664614  83.3540058
  54.0202951  68.8831186  83.8379860  54.7251797  84.4098854  72.2515535
  53.8620567  84.2109966  72.6144552  54.6401453  85.2977657  71.9041681
  85.8389950  81.8139648  86.1176682  86.0581589  82.3556900  85.3595543
  86.0018921  80.9169006  85.8261490  45.5902147  90.4383087  69.8835945
  46.1530495  90.3611851  70.6539869  45.8929253  89.7463226  69.2955828
  73.5221767  92.1362972  71.2588453  73.3357906  91.6666508  72.0718145
  73.8306570  92.9962635  71.5443659  81.0139465  81.7315388  61.3381100
  81.3047695  82.1760178  60.5418110  81.7761612  81.2274837  61.6230440
  40.5827379  47.3080540   9.2085701  40.5345249  48.1118298   8.6910284
  41.3064337  46.8163013   8.8204014  33.2137322  17.0046163  31.1433244
  32.3559976  16.9623876  30.7205486  33.8208008  16.6600060  30.4883885
   7.1181560  29.8797774  36.5625834   7.6819456  30.6530905  36.5815616
   6.4636946  30.0437903  37.2415614  89.1179276  80.4328632  69.3386507
  88.6235714  81.0319901  69.8980093  89.6559238  81.0050106  68.7914371
  39.6233797  90.3497219  60.7542372  40.5164671  90.2319336  61.0778904
  39.2935562  89.4594860  60.6320238  16.8812573  41.8835258  15.0854874
  17.4244440  41.9193029  14.2981493  16.2267923  41.2116051  14.8946202
  36.2081814  91.6108894  81.4686489  36.1637330  91.6807747  80.5150414
  36.9702148  91.0553932  81.6328335  39.6619678  30.0316405   6.7954630
  39.7204614  29.1313672   7.1153337  38.7769389  30.1016521   6.4376205
  65.5022669 105.2191448  65.7409954  65.2156544 104.3059063  65.7326126
  65.4705477 105.4885674  64.8230410  39.6186447  88.3313274  58.4550285
  40.2826548  88.5413074  57.7983475  38.8320112  88.7862301  58.1542015
  90.8452511 100.5119610  86.8381310  91.3058758  99.7163391  86.5715790
  90.0209999 100.4857254  86.3521767  99.1877365  92.7257919  66.5017176
  99.2696857  91.9676399  65.9231758  99.5904922  93.4440708  66.0137653
  55.1600266 105.3078461  64.7407389  54.9940872 104.7230053  65.4800987
  54.3047619 105.4169083  64.3249798  31.8143821  62.2358894  51.5165520
  32.1910477  62.6353168  52.3006535  32.5062037  62.3016834  50.8583117
 113.3770084   1.4050116  61.3534403 113.2992077   2.3587987  61.3317728
 113.1745052   1.1686876  62.2586346 107.2215748   2.6997370  52.4917269
 106.3766861   2.9933229  52.1508265 107.3762321   3.2529724  53.2573891
  70.3546906  11.6794920  58.1028652  69.5678329  11.4591563  57.6043272
  70.2374983  11.2367392  58.9433813  67.6433420  87.1505737  34.9735951
  66.7030144  87.2127247  34.8058176  67.7876043  86.2294483  35.1902795
  23.4876823  12.1270299   6.3175893  23.5753536  11.3665318   6.8922096
  24.3885994  12.3857391   6.1235553  95.4592609  60.6542206  75.5669975
  95.8336735  61.5200186  75.7295847  94.6874142  60.8245897  75.0271177
  81.2864399  67.2951937  62.8300571  80.6738472  67.9747343  63.1114674
  82.1325588  67.7402210  62.7826262  99.4006634  93.6442852  74.2100048
  99.4222927  93.1945419  73.3653164  98.6633587  93.2474422  74.6738291
  59.4773912  33.4476280   1.5654342  60.0288010  32.7135587   1.2946592
  58.7511444  33.0402708   2.0375133  24.7783828  16.0318100  43.0965710
  25.1299191  15.5038595  43.8134527  25.0183797  16.9308078  43.3211470
  64.8456287  33.3710003   9.1290313  64.7750854  32.4179316   9.1830462
  65.6791115  33.5246444   8.6841321 106.9290543  47.0314169  13.6476564
 106.5023994  46.9877195  14.5033932 106.2347507  46.8220758  13.0228829
  69.4830942  78.8710403  78.2739925  69.8970509  79.6689701  77.9450798
  68.8859892  78.6052275  77.5746775  58.5299969 101.1531925  92.0779896
  57.7899885 101.4023018  92.6316738  58.4615564 101.7264748  91.3145161
  68.6931944   1.2365549  87.7170372  68.8391161   0.3683311  87.3413658
  68.2679272   1.7319946  87.0170975  69.0893793  91.4062786  76.2512445
  68.6033869  91.9459534  76.8747759  68.4283543  91.1080360  75.6264830
  14.0084302  29.4757390  41.8101740  13.3083081  29.0828037  42.3313856
  14.8142922  29.1195250  42.1842480  28.0378270   7.1202582  66.7092752
  27.4441695   7.6731932  67.2172737  27.9307723   6.2461239  67.0843220
  85.6206226  97.0360184  78.2245398  85.4982090  97.8366089  77.7143431
  86.3902473  96.6199017  77.8362703  27.4658179  36.0187078  12.7282846
  26.7579150  36.3199925  13.2977879  28.1971717  36.6040254  12.9251575
  56.4800596  89.2714310  52.3188925  57.0596170  89.0892601  51.5791893
  56.1817408  88.4089184  52.6075172  55.3664494  90.1790047  70.5135298
  56.2835884  90.3047180  70.7570076  55.0065613  91.0649109  70.4701233
 108.7558937  30.0722384  84.5095921 108.7601566  31.0254264  84.5970440
 108.1518650  29.7721100  85.1887894  26.8681860  40.6781960  15.5942380
  26.8818903  41.6231346  15.7463586  27.1209550  40.2965784  16.4348972
  44.2695284  21.5921187  14.7152066  44.5905638  22.4363279  14.3982160
  45.0622511  21.0878634  14.8983562 105.9430408 101.7170048  63.8416290
 106.6934299 101.8278313  63.2577944 105.5271053 102.5788307  63.8633156
  29.7245917   0.4569218  84.9961567  29.6405444   0.0711033  85.8681107
  30.2684817  -0.1636436  84.5110703  89.6203041  27.9599309  49.4702911
  90.2039337  27.7611399  50.2024746  89.3620872  28.8709426  49.6103382
  36.2779832  64.8013783  10.4259157  35.8080602  64.2768669   9.7776192
  37.1923470  64.7665834  10.1449180  73.3031797 107.0007515  89.4801617
  73.9173698 107.6268673  89.0967846  73.6270714 106.8617821  90.3701115
  86.7169762  89.6983242  81.8151951  86.4961529  89.1266918  82.5505257
  86.8545628  90.5579948  82.2130299   9.2178214  47.5415945   1.7274904
   8.9058143  48.3656406   2.1014351   8.4734738  46.9451523   1.8077004
  45.9449482  34.7447419   9.2935282  45.3500080  35.2460384   9.8511863
  46.6689157  35.3449917   9.1151977  23.0161190  63.9809513  14.8995960
  22.7111769  64.4257832  14.1087937  23.3430290  64.6851015  15.4595351
  81.8554306  93.1980228  47.6466036  82.6906776  93.2394886  48.1122923
  81.8795776  92.3594666  47.1856546  95.1185989   6.6101235  90.8158016
  94.4542217   6.6257042  91.5047073  94.8538780   5.8895749  90.2439976
  19.2540610  44.4709206  11.0890281  19.5257425  45.1020288  10.4226029
  18.2989788  44.4540119  11.0276759  94.6206474  80.5683994  73.1516075
  94.7936821  80.9898090  73.9934540  94.8606014  81.2273407  72.5001049
  33.0187821  11.5508926  69.5368290  33.1920791  12.4839282  69.4117546
  32.5129962  11.2956905  68.7652826  68.1052446  26.8263149  24.7903943
  67.4214792  27.0093679  25.4347444  68.6271906  27.6281404  24.7606730
  22.5829339  53.3416367  10.4086041  23.5028052  53.4169531  10.6623709
  22.4156475  54.1219044   9.8799938  31.0536075  39.6603584   5.5216599
  31.5866375  39.8033881   4.7395772  30.2168941  40.0798607   5.3212583
   2.0034696   8.5334063  86.2835693   1.6067967   7.6773298  86.1222839
   1.2995151   9.0546811  86.6695213  37.3890901  64.0154457  19.7222853
  37.7143621  64.2820311  20.5821466  36.5694332  63.5572052  19.9077928
 102.3806953  85.1843357  86.2416649 101.9198895  84.5621490  85.6788540
 101.7190742  85.4750443  86.8693352  90.7524300  79.5870018  61.8612289
  91.6093063  79.2178249  62.0749855  90.6156349  80.2704048  62.5173378
  29.2448783 103.0535126  86.6801262  29.3269229 102.1076488  86.5582752
  30.1258326 103.3414936  86.9193363  30.7791901  24.3452120  62.0005798
  31.2193298  24.8962617  61.3533878  29.9493504  24.1067171  61.5873957
  48.6916685  35.5451846  10.1116920  48.6692572  36.3678837   9.6229208
  49.5994425  35.4652667  10.4045963 100.8079338  14.5486784  75.5779600
 100.3308392  14.1931176  74.8281670 101.4119148  13.8503706  75.8305597
  68.1320572  96.1380005  72.4956846  68.8062239  96.5894413  71.9878101
  68.1585312  96.5578938  73.3554649 105.5787563   2.7126327  77.7556372
 106.3671398   3.2480592  77.6662064 105.9065056   1.8195641  77.8616571
 101.8511009  77.7045345   0.8418735 101.0319519  77.3659229   0.4805399
 102.1292973  78.3747292   0.2176296  49.7061014  76.4759302  90.6177616
  49.7923326  75.7895327  89.9562073  50.1731682  76.1339045  91.3800621
  95.8749676  93.2713604  84.2422962  96.0889435  93.2419491  85.1748085
  94.9507809  93.0256462  84.2007637  87.0591354  72.3733044  76.6584682
  87.8513813  71.9631720  76.3115215  87.3145103  72.6938677  77.5234842
  83.4092236  81.6303253  92.0365143  83.4727764  80.7119083  91.7744064
  84.2172050  82.0283318  91.7124748  76.3956165  93.2727337  90.6493759
  76.2317371  92.4862003  91.1697006  75.6025028  93.7984180  90.7536030
 113.4602642  23.9121771  61.9385099 113.3163738  23.3943939  62.7306128
 112.7165604  24.5139885  61.9073820 106.1738110 105.0972748  69.7117710
 105.5675125 104.6846581  69.0966368 106.8147087 105.5402279  69.1556501
  92.3711586   0.7666172  90.6275082  92.2565079   1.1558674  91.4944363
  91.6969395   0.0889531  90.5781555  85.8428764  59.1719723  77.8585577
  86.7353344  58.8264799  77.8388977  85.9376335  60.0608730  78.2007599
 109.4501877   6.9440281  81.5776062 109.5616150   7.8943884  81.6027355
 108.7377167   6.7700648  82.1927166  82.0976639  84.8810005  61.1603785
  82.9509449  85.0868511  60.7785892  81.7469215  84.1866493  60.6026173
   4.1505849   2.9583481  58.9203167   3.6012286   3.7119347  58.7045670
   4.3100330   3.0395675  59.8606396 109.9616337  31.7096567  86.8534184
 110.0338173  32.5152946  86.3415909 109.7197723  32.0045185  87.7313709
  63.5676384  80.7310677  70.9429359  64.3505430  81.0855198  71.3644361
  63.0374956  80.3955555  71.6658545 104.0013218   5.8409160  71.2116861
 103.4673882   5.6432950  71.9811630 103.6707306   6.6837072  70.9008026
  62.5232744 102.7427006  93.1549358  63.2153988 102.0874882  93.2437992
  62.8162622 103.3048248  92.4377251 102.5025368  36.0004592  21.6156435
 103.3431339  36.3440371  21.3130140 102.7229023  35.1761746  22.0494914
  69.7327137  54.2576838  15.9107959  70.2472687  54.2870522  16.7173934
  68.8434649  54.0548992  16.2012291   3.8454473   4.0548247  67.9896450
   2.9426003   4.3349716  67.8392553   3.7688875   3.1464508  68.2815838
   4.1727400  47.4612761  22.5562406   4.0305796  47.5074863  21.6107845
   4.0609616  46.5350294  22.7702618  71.6948795  10.3780985  85.3034210
  70.9738016   9.8922724  84.9031067  71.3500643  10.6650484  86.1489964
  59.4217348  45.7811213  17.8489375  59.6051884  45.4405117  18.7244725
  58.6889219  45.2515745  17.5346220  64.1390324  89.5164108  63.5730171
  64.0587902  89.5099449  62.6192093  63.2647705  89.2875385  63.8884830
  88.4235573  58.1019688  77.2890043  88.2683277  57.1592522  77.3474741
  89.2889309  58.2268238  77.6785851  47.8297329  83.2022572   3.2155561
  48.1385946  83.9050007   2.6437327  48.5189629  83.1081200   3.8730782
   9.5664978   0.1306539  88.6522102  10.0544739  -0.6532840  88.4001160
   9.5274484   0.6558330  87.8528976  82.3725605  98.4700012  84.1410923
  82.4489117  97.5166893  84.1011715  81.7154884  98.6294937  84.8186302
  38.1736159  84.2427635  32.1426487  37.8826475  84.9767494  32.6837945
  37.6096535  83.5146141  32.4033737   3.3146563  19.8708153  89.0003681
   3.7579456  19.6046674  88.1948280   2.7274138  20.5762219  88.7287521
  41.9767618 104.3905163  74.2918491  42.4385452 103.5967445  74.0218258
  41.5378284 104.1467667  75.1068068  80.7362747   8.6159068  54.0065384
  80.5586243   9.3289739  53.3931780  80.8477402   9.0497857  54.8524427
 105.1065159  34.1134262  81.7645359 105.3197479  33.1864405  81.8715763
 104.5653152  34.3241096  82.5254250  74.2765236  81.7005348  47.5338459
  73.9393425  82.5945759  47.5907421  75.1011562  81.7855644  47.0553207
  26.3195133  66.9204855   8.6752182  27.0155668  66.2983418   8.8866019
  26.7753172  67.6665115   8.2854486  51.6757917  37.2213888  28.2216740
  50.8113337  37.0330167  27.8563547  52.0990229  36.3654900  28.2890773
  82.7304173  39.1407871  78.1818056  81.9142056  38.7391257  77.8839874
  82.4557686  39.7882080  78.8311481 110.0369167   9.8114443  51.1525011
 110.1024437  10.5664468  51.7372274 110.0778198  10.1857877  50.2724838
  92.6180458  84.2795181  87.9583645  92.8954601  85.0717545  87.4983311
  92.0617104  84.5977688  88.6693001  87.1467209  24.0296984  37.7253222
  86.5973186  24.0506172  38.5088730  86.6304684  24.4827700  37.0586562
  88.3527756  18.5532331  66.2196445  88.7164688  18.6593735  65.3406191
  89.0625668  18.8155997  66.8058109  63.7190962  76.1447954  63.9962435
  64.1817617  76.9595957  64.1918707  63.3836460  75.8505821  64.8430872
 103.4858322  88.5397720   1.0236066 103.2577801  87.8901100   1.6885570
 104.3241310  88.8976002   1.3159271  24.2754507  74.3886518  17.4139524
  24.2220306  74.0083313  16.5371764  24.7924519  73.7593746  17.9168952
  40.8740759  82.0793629  69.0872145  40.9730005  82.5307369  68.2489395
  40.9264755  82.7757359  69.7418547  83.6973476  86.3544559  84.9176884
  83.2968903  86.0317516  85.7249928  82.9661083  86.7116642  84.4137764
  64.9573660  94.2764473  76.0214663  64.6860790  95.1735306  76.2160826
  64.2545748  93.7315369  76.3755703 102.0925617   7.3861295  84.3361378
 101.5592289   6.6185927  84.5427036 102.4772453   7.6430583  85.1741314
  11.0201561  62.2799730   4.8144242  11.9612646  62.3950529   4.6828920
  10.8547795  62.6373720   5.6868625  93.1139469  21.8128347  87.5238895
  93.6243057  22.5885606  87.7563000  93.7515545  21.2144661  87.1344757
 106.6579151  56.6554022  26.0241485 106.9628525  57.2330379  25.3244495
 105.7060623  56.6399860  25.9242487  47.1515751  91.7412376  48.7744617
  47.7905750  92.4396038  48.6323404  46.4046860  92.1793747  49.1824102
  49.5443583  78.3497190  74.4498968  50.2729893  78.9314413  74.6665192
  48.8011456  78.7049866  74.9373865  99.7109890  81.3320446  81.6748428
  99.4381332  80.8644485  82.4642372 100.0398922  80.6472778  81.0924816
  85.8422947  86.5024376  67.6138592  85.0272083  86.9961643  67.7038431
  86.2773895  86.8943787  66.8566895  92.1835423  98.8143539  75.7830000
  92.5686073  99.4351578  76.4015055  91.3763332  98.5231972  76.2071133
  34.3508029  52.2282314  40.5574036  34.0856647  52.0627832  39.6526599
  35.1117682  52.8040361  40.4825020   7.4365819   1.5453437  67.7819872
   7.1600604   2.0207191  66.9985437   8.3548141   1.3293257  67.6194525
  84.9044514  92.7491283  85.3291798  84.5882988  93.0034351  86.1961269
  85.2887630  91.8821621  85.4591942  19.2084360  18.3791983  67.2493219
  18.9634311  17.5196314  67.5918818  18.9496791  18.3525538  66.3281441
 112.9803181  72.9892302   3.1962958 113.7503338  73.5264921   3.0101275
 112.8502560  73.0761433   4.1406268  81.7615986  98.4011269  65.3717852
  81.3352680  98.0435753  66.1506510  81.1859226  99.1114140  65.0883913
  49.7472429  31.9826078  10.7968080  50.6206512  31.8354654  10.4338467
  49.1505003  31.7647362  10.0808048  94.5192623   1.3638873  62.8073263
  94.7009182   1.8767321  63.5948706  95.0398350   0.5678107  62.9145432
   6.4926320   8.3901143  71.2244940   6.2594503   8.7452930  72.0822239
   5.8014262   8.7017584  70.6402445  56.3383484  41.0013008  27.4154878
  55.4266548  41.2894297  27.4605656  56.8422461  41.8117094  27.3409414
  88.1170082  22.1690011  73.5465002  87.5755024  21.6789341  74.1652346
  88.6613083  22.7312875  74.0976906  54.1734123  81.1060810  18.9355135
  53.9220190  81.8689156  18.4148252  54.4007397  80.4386044  18.2881820
   5.3793180  29.3935513  87.2345448   4.8230878  29.3004298  88.0079556
   5.2759755  30.3087902  86.9739914 102.1385670  86.6477394  83.2647419
 102.9611683  86.5019512  83.7319756 101.5777206  87.0924854  83.9002609
  81.6060925  78.3381271  86.0927677  81.7330837  78.9661598  85.3816605
  82.3107719  77.7005768  85.9779453  26.0397196  60.5793428   3.8114738
  26.4487290  61.1730385   3.1818146  25.2743864  61.0580540   4.1298038
  67.9211044  92.5719547  58.9216375  67.8460598  93.4608173  59.2687988
  67.0278311  92.2289181  58.9464760  23.3002043   6.4332318  87.9014874
  23.2407284   7.3097986  87.5215912  24.2367053   6.2352395  87.9015064
  87.3726082  14.3651903  84.4544029  88.3231640  14.3116915  84.3553543
  87.1422100  13.5949600  84.9739170  11.5554035  65.9223080  10.7018006
  10.7835031  65.6126213  10.2279890  12.2816694  65.7817888  10.0943267
  46.5387821  49.9820805   9.7649848  46.5463209  50.5300331  10.5497897
  47.2318411  50.3445244   9.2131418  62.6615715  54.3524790  20.1201916
  61.9126463  53.7913465  20.3213859  63.2448292  53.7971115  19.6028805
  29.6585965  70.3217125  33.5716009  30.5967855  70.2383471  33.7421441
  29.5163274  69.8237944  32.7665710 113.3477783   5.3812671  85.0673103
 112.5574780   5.2848029  84.5359421 113.0916691   5.0712913  85.9359550
  90.4958439   7.0549375  75.9884548  90.5994987   6.2980616  76.5651941
  90.9792328   7.7565092  76.4247656  86.6089725  78.1628561  78.2398748
  86.9915199  78.7155247  78.9213753  86.4412975  77.3271084  78.6753511
  95.7628727  34.2452359  64.9344969  96.6032410  34.4375992  64.5185566
  95.9316158  33.4680581  65.4671764 112.3786163   8.9592493  91.1321735
 113.0539227   9.6198773  90.9779835 112.6912117   8.1838810  90.6659889
  46.7323208  54.6815538   3.6784485  46.0151148  54.1502428   4.0242112
  46.3399887  55.5403996   3.5213199  56.4919281  40.4195881  14.4617057
  56.3212252  41.2086821  13.9474845  56.8390465  39.7914124  13.8283551
  61.8460369  88.9789391  83.0085564  61.6173029  88.0606365  83.1521893
  62.6791286  89.0926361  83.4660053  96.9193745  26.0892582  14.5732868
  97.5551128  26.0264230  15.2861047  96.5233421  25.2189946  14.5281541
 102.0437431  10.5786371  49.0061569 102.5189018  10.5327404  48.1764889
 101.1223316  10.6297433  48.7519598  44.3570280 104.7605133  67.7125120
  43.7376928 104.4138336  68.3547544  45.2064419 104.7180462  68.1517458
  33.7067509  52.9697132   1.4938658  32.9433203  53.5299444   1.3540635
  34.1104150  53.3098269   2.2923717  48.6524296  60.5016279   1.9720952
  48.1990290  60.5649233   1.1314681  49.5743990  60.3920460   1.7392971
  22.9511023   9.0734130  76.0378838  23.1212687   9.5710438  76.8376589
  23.4821248   9.5058930  75.3691483   5.1157600  52.0494795  74.9153185
   5.9111857  51.6123247  74.6113014   4.5833665  51.3464069  75.2874422
 108.4750938   2.9301932  55.7260513 108.7652493   3.0312487  56.6325998
 109.2817402   2.7875569  55.2308702  81.2385845   0.1550543  81.6562462
  82.0243454  -0.1445968  82.1134281  81.5709496   0.6229224  80.8901787
  37.0600128  98.0004787  91.4357471  37.9878402  97.8758049  91.2361813
  37.0171452  97.9897785  92.3919296  40.5269146  34.4926691   1.0083915
  39.8675656  34.8671675   1.5925522  40.9626102  33.8237500   1.5365440
   6.6106129   7.8707123  47.9910898   6.0951197   8.5847354  47.6160288
   6.6785759   8.0871648  48.9210129  89.5924854  80.5281353  51.6984510
  89.5322895  79.6402740  52.0510340  89.2598534  81.0876083  52.4002838
 102.9048443  98.0849171  88.6537933 103.3085251  98.5052967  87.8944778
 103.6277771  97.6348782  89.0909004  42.1542168  15.0655234   1.2411644
  42.8727245  15.6976783   1.2601693  42.0431900  14.8569369   0.3135886
  69.7785473 102.2102547  42.9471207  69.5082664 103.1247902  43.0295849
  70.0744486 101.9678974  43.8245821  64.9660730  85.6781483  57.2145128
  64.6577168  85.6255436  56.3098717  65.8991289  85.4710770  57.1619368
  73.9583540  81.1031818  86.4185619  73.2107210  80.5337048  86.2369728
  73.7667084  81.9098759  85.9402943  54.6414375  87.7406216  82.5683498
  54.1040850  88.3937740  83.0165482  55.5297565  88.0952835  82.6050186
 103.5357475  90.8700275  10.8785880 102.6215553  90.6032181  10.7821369
 103.9387989  90.6521034  10.0381792 109.0640450  53.0308151  74.2728138
 109.9834824  53.2655668  74.1472340 109.0696335  52.4316740  75.0192928
  39.7166586  69.8334694  16.0391057  39.0117645  69.5764256  15.4447246
  40.4726934  69.3231440  15.7489061  38.8885784  77.5752258  15.0999737
  38.1368971  78.1461382  14.9410188  38.8883448  77.4370718  16.0471499
  32.3392034  63.2929802   7.3924130  31.3934469  63.1546593   7.4438590
  32.6230764  62.7390194   6.6652429  60.9754658  60.2082634   0.5226641
  61.3865805  60.3507233  -0.3299343  60.0535917  60.0486946   0.3203824
  82.7918911  87.7143288  52.3147535  83.6635399  87.9952812  52.0363235
  82.4101448  87.3103619  51.5354490  55.2516127  79.6758938  68.3489370
  54.5453930  79.0297651  68.3507919  56.0000038  79.2116451  67.9739428
  42.6394033  40.8426189   2.4348976  42.7975178  40.6838417   1.5042952
  41.7189837  40.6136847   2.5639325  81.1686325  88.0118752  80.5028534
  81.6378117  88.8074398  80.2515030  80.2908802  88.3147812  80.7352829
 105.7364845  31.0623646  84.9654198 105.9665394  30.5372906  85.7319736
 105.4287052  31.8931484  85.3277779  39.4867373  42.5981045   7.4733859
  40.3142357  42.6966810   7.9443008  39.0912151  41.8103170   7.8464675
  12.7351093  31.4352679  82.8382969  13.0515087  31.4004397  81.9355679
  13.5305047  31.4692235  83.3697319 110.4167366  35.8626962  27.0689559
 110.7506561  36.3692379  27.8093266 110.9974575  36.0890985  26.3424945
  69.8413658  92.8204536  69.0703773  70.0934076  93.6676025  69.4378757
  68.9984560  92.9841232  68.6473513  45.0313807  87.3714161  55.9691381
  45.2123022  86.5106583  55.5915356  44.5619917  87.1826458  56.7817068
  60.8318520  75.5495071  65.1353693  61.0428858  76.0905457  65.8962727
  60.7064772  76.1764765  64.4230366  24.5000982  29.2660546  27.6434326
  25.4272389  29.5036006  27.6581383  24.0565133  30.0066543  28.0569243
  49.8424816  19.3309462  66.4844942  49.5798826  19.4933438  67.3905277
  49.2792797  19.9049747  65.9653330  91.5850067  11.6178739  83.7559795
  92.2414589  11.6859162  83.0626774  92.0859528  11.6919601  84.5682526
  51.9972706  89.1690254  67.7893972  52.6055098  88.6287403  67.2850466
  51.6721392  89.8138237  67.1611071  90.0680161  61.6858006  61.9603443
  90.2108479  61.6092062  62.9037237  90.6389523  62.4046707  61.6892481
  72.9261637  88.4657860  70.9791422  72.1039057  88.8302135  71.3067341
  72.7953482  88.3912563  70.0338602  15.2516413  60.7559729  11.5212703
  15.3940630  59.9932432  10.9607434  14.7142339  60.4267550  12.2417140
  58.5287571  97.7177620  63.2572746  59.3850422  97.7601051  63.6829662
  58.6582756  98.1534100  62.4148560  79.1574383  76.6346836  92.4243259
  79.9054813  77.1738052  92.1674061  78.4418249  76.9354630  91.8642712
  64.3237448  87.2575665  59.3836737  64.4502020  86.9075108  58.5018015
  64.5331717  86.5258217  59.9641323  77.5765038 106.5636253  68.6998367
  77.7367687 106.5813446  69.6433592  76.6254330 106.4909172  68.6197662
 108.3784962   3.1977233  80.6619358 108.0100346   2.5372082  80.0752640
 108.0896187   4.0328103  80.2939606   3.0450737  29.8654771  75.0576782
   3.5564023  29.4533443  74.3613148   2.1467876  29.5754361  74.8989630
  33.0456042 100.5044174  84.0488338  33.7582564 100.1445580  84.5769119
  32.2826529  99.9766731  84.2846870  41.4144230  67.4672127  27.9878736
  42.0299673  67.9981184  28.4933281  40.6946993  68.0643034  27.7836275
  47.1958017 102.8605556  24.2482805  47.5456285 102.0072937  24.5048022
  46.3334846 102.9000473  24.6619034  38.8094616  18.0650222  18.8191295
  37.9169321  17.7740848  18.6321020  38.9097714  18.8709605  18.3125401
  70.7026529   5.4167163  60.7927227  71.3420677   4.7056246  60.8342838
  71.2322855   6.2122983  60.7401180  42.4480724  99.7440338  64.5784378
  42.2952271 100.0187683  65.4825354  42.9001474 100.4855633  64.1759491
  91.0316086  97.8156281  80.6995869  91.2398815  97.0759392  81.2702942
  91.8547249  98.2981300  80.6228542  38.4962034  69.5469761  19.4894886
  38.3295941  70.3692675  19.0287173  37.6411843  69.1187716  19.5320392
  78.2027960  83.9105129  72.3986673  79.1120434  83.6695480  72.2213411
  77.8757906  83.2113838  72.9648113  24.0363002  50.3651857  25.8040261
  24.3425465  50.2085972  26.6972923  23.2573748  49.8155355  25.7180643
  30.0849032  57.7361584  13.4829438  30.9047675  58.1418419  13.7648511
  30.3438425  56.8741941  13.1570578  44.9048233  84.7393513  65.1834726
  44.0752983  85.2121925  65.2508974  44.8249769  84.2293549  64.3773937
  91.0068035  88.4101582  71.1677933  91.5432072  89.1423130  71.4718485
  91.5029049  87.6302624  71.4165449   4.2338672  18.9480257  91.3418198
   4.0024939  19.4291174  92.1363354   3.8169917  19.4396472  90.6341839
  83.5157108  90.3180790  45.0133276  83.4354115  91.2697220  45.0778627
  84.4501495  90.1479530  45.1321554  95.5330753  39.6415329  79.5206738
  96.0094261  38.9931774  79.0020704  95.5976295  39.3225384  80.4208469
  12.4875379   5.1974565  47.1497154  12.2315061   5.9419006  47.6942158
  12.2194397   4.4288999  47.6533747  77.7337646 106.8116283  86.1388111
  78.3797503 107.4569416  86.4260483  78.1628227 105.9667110  86.2739372
  87.8660965  82.5957775  70.4969692  88.2748222  83.4435368  70.6715441
  87.2055626  82.7812576  69.8294973  16.6813052   4.7728491  68.0842543
  17.3317051   4.0940985  67.9039526  16.9744825   5.5272871  67.5732756
 111.3992119 105.4935837  88.8151550 110.6050301 105.1192665  88.4338474
 111.4539146 105.1019955  89.6868801  88.4297752 105.8704758  74.1455078
  89.2695999 105.4505825  73.9594269  88.4785652 106.1031437  75.0727177
  47.2254372  40.4934359   2.0117503  46.4491081  40.9584999   1.6998835
  47.7670908  41.1733532   2.4124481  23.7257648  31.5249968  79.4456482
  22.9543257  31.5202045  80.0122929  24.2086005  30.7359815  79.6917200
  55.4609013  69.9050331   7.8478432  56.1577463  69.6221972   8.4399980
  54.6530199  69.6222830   8.2763380  54.8835325  79.3605995   3.3704156
  55.6010723  79.5022583   2.7529183  54.5444441  78.4933615   3.1487152
  91.7209721  63.8156986  36.8316770  92.0345306  63.3912086  36.0331011
  91.8198967  63.1494236  37.5117660  85.5328751  99.1934490  88.9132500
  85.5590916  98.4907436  88.2638264  86.2661266  99.0055847  89.4991493
   6.8196017 106.5599346  59.7930241   6.5360147 105.6668854  59.9886417
   6.5672988 107.0659542  60.5653763 112.9929638  13.8997602  90.2747440
 113.2017994  14.7680569  89.9302387 112.0513248  13.9293814  90.4440784
  48.1787252  84.6521759  53.4893703  47.7542305  85.0415039  54.2538691
  47.4649000  84.5021057  52.8695583  79.8924637  92.6967239   7.8265792
  79.4011545  92.2581768   8.5212183  80.1625824  91.9893551   7.2410053
   4.4859359  39.1187644  66.8492079   4.7463638  38.1990004  66.7997694
   3.5558552  39.1168356  66.6229820  96.6040325   0.9732503  84.7279835
  96.2131977   0.1199268  84.5400524  96.3374519   1.5258318  83.9932632
 109.4861603   3.5046926  65.2039385 109.8789120   3.7912187  64.3793917
 109.9726677   3.9786398  65.8784103  96.9130325  99.6334076  90.7688713
  97.0578957  98.6925507  90.6687355  97.1914482 100.0088501  89.9335575
  74.8533344  22.5934601  70.5580854  75.3545189  22.2063947  69.8402882
  75.2005291  23.4816122  70.6409740 104.3853569  77.5133228  55.8336544
 103.7226772  78.0923367  55.4570627 105.0470734  77.4282694  55.1472569
  87.5834465  43.9962435  17.0288324  86.8702412  43.8692713  17.6544797
  87.2700310  43.5873318  16.2221181  98.8515568  90.5547810  56.3583183
  98.4524345  91.3739586  56.6513586  98.1809330  89.8908424  56.5185881
 108.0819321  57.2372627  69.6937466 107.8497601  57.7646112  68.9293957
 107.8790951  56.3382769  69.4350672 103.9890766  67.2530985  19.4811249
 103.0695152  67.4409389  19.6691573 104.4036770  67.2002268  20.3422546
 113.1951427  36.3221240  59.0825319 112.3832893  36.5689087  58.6395502
 112.9427242  35.6035948  59.6623898  94.1145897   2.7612203  57.3868608
  93.7740231   1.9690850  56.9712067  94.2884922   2.5011840  58.2915020
  11.0387123   5.9360063  52.1129847  11.1837769   6.8221986  51.7815447
  10.2725315   6.0152531  52.6812410  62.4472332  74.8183298  78.9083338
  63.1678247  74.2717886  78.5948420  62.4589872  74.7079515  79.8590755
   2.8179559  28.4620976  51.5971375   2.7753976  28.1390095  52.4971533
   2.4598265  27.7484155  51.0692787  72.5000477  88.8022137  62.7509165
  73.1524420  88.8190937  62.0506811  72.8083181  89.4532967  63.3812284
  91.8324089   4.3368959  90.3355026  92.1880913   4.9814555  90.9472752
  91.8502903   3.5115364  90.8199596  37.2913122  22.4886155  45.7446194
  36.3998389  22.8345180  45.7015085  37.7060056  22.9827285  46.4518070
  57.3822594  85.0351715  40.7282162  58.1981134  84.9269772  40.2394295
  57.5324965  85.8043671  41.2777567  80.5485630  97.4217606  73.9924812
  80.1497173  98.2901669  73.9374399  80.4742527  97.1821785  74.9162292
 105.4954529  10.2689683  75.2169514 105.7423973  10.1495075  76.1340046
 105.3206444  11.2065959  75.1361704  52.6162624  47.1403646  31.3096428
  53.1502056  46.3890696  31.5678930  51.8567705  46.7554331  30.8723450
  73.9241409  94.9314404  56.6109848  74.1427565  94.0179825  56.7954779
  73.2925034  94.8862839  55.8931923  57.8919554   1.3492714  81.1070538
  57.6245832   1.5317129  82.0078659  58.3213139   0.4950044  81.1530113
  19.0196097  54.1061735  10.1764858  19.2557395  54.3515587   9.2819130
  19.8180497  54.2526579  10.6837022  29.2788267  38.3767891  11.3214755
  29.5237327  37.9575157  10.4965746  28.7645245  39.1401291  11.0587251
 111.6705227  17.9846144  48.4341431 111.2930870  18.5975194  49.0651131
 111.3115501  18.2584155  47.5901031  91.2052727 101.8569088  82.5163555
  90.4520416 101.2665176  82.5342274  91.9185925 101.3244915  82.1642971
  70.0030422 106.3950253  80.0392818  69.8942184 105.4808235  79.7773170
  70.1619053 106.3566399  80.9824181  57.4749041  37.9197478   1.5377676
  58.1022501  37.2534657   1.2571682  57.9102850  38.7518167   1.3524586
  89.5572281  12.9349244  89.5426083  90.3811073  12.6977491  89.1169357
  88.8797092  12.5719607  88.9721203  77.9523373  77.2214603  90.0188255
  78.4739590  77.4824619  89.2598724  77.3154545  77.9279280  90.1261330
  72.4484491  75.6606054  42.5504494  72.2727346  75.4087543  41.6438437
  73.3509254  75.3819799  42.7058125  96.4203930 102.6653767  77.0463467
  96.5573406 102.0552063  77.7710342  96.4352417 102.1147156  76.2635374
   3.1738195  33.7634969  82.8975868   3.7224975  34.1400957  83.5855961
   2.9548699  32.8884721  83.2179356  86.7692852  85.2421093  64.8809719
  87.6827526  85.1872253  65.1616907  86.3234711  84.5586777  65.3813696
 105.1080322  13.2351232  47.7849960 105.6596661  12.5316548  47.4428415
 104.7371674  12.8777742  48.5918331  89.0977192  87.7192974  79.6304178
  88.9405918  88.6569691  79.5194435  89.9901867  87.5865364  79.3108749
  91.3147926  98.3257103  65.1707983  92.0356369  98.5763931  64.5930672
  90.8914089  97.5939751  64.7218561  56.9737339  69.0150404  10.3176761
  57.7578354  69.2434311  10.8169305  56.6702318  68.1962395  10.7097006
  87.8686810  94.1865349  76.0078096  87.0059013  93.9520550  76.3496590
  87.6988697  94.9106598  75.4052830   7.8093696 100.6296444  91.4082050
   8.3001840  99.9870777  91.9204998   8.4619880 101.2819481  91.1536121
  74.5280838 102.4526691  72.2498369  75.0080156 101.7218018  72.6393604
  73.6751461 102.4376583  72.6840162  70.8495617 107.1076965  43.6067057
  71.5762472 106.4856911  43.6423206  70.9004593 107.4854755  42.7286816
  72.9198456  97.2260761  68.7232876  73.0045176  98.0937195  69.1185904
  72.4511433  96.7090797  69.3784714  96.7036152  17.2530603  80.0096798
  95.8693218  17.5677657  79.6616220  97.0108986  17.9628599  80.5735874
  82.9143715  93.4178829  73.1101990  82.6222706  92.6087093  72.6905060
  83.8368416  93.2628727  73.3132839  79.3458414  19.8151004  44.1842461
  79.8049831  20.5228209  44.6365166  80.0441074  19.2673361  43.8256168
  33.5195565  83.2300472  66.6268778  32.9813623  82.4866676  66.8988276
  34.1978598  83.2933617  67.2992802  47.4530745  19.5112395   1.0599546
  48.3395576  19.3224931   0.7521278  46.9061613  18.8507152   0.6347210
   3.1147140  84.6227360  58.7846184   3.6064380  84.1466236  59.4537640
   3.7431028  84.7558594  58.0749464  71.3952637  89.6953583  57.4216604
  72.1133471  89.9436378  58.0038452  71.4070177  90.3578377  56.7308521
 104.4190598  19.0881121  45.5601120 104.0629482  19.6181476  44.8470306
 104.2777920  19.6170175  46.3453054  80.3752708  74.8481798  52.2190475
  80.1700211  73.9275026  52.0563745  81.1885643  75.0008869  51.7379379
  79.9315262 104.0918159  78.9980650  79.2499924 104.2105484  79.6596146
  79.5816326 103.4212875  78.4113884  91.6645432  96.3693523  92.2455978
  91.3681602  96.5744972  93.1323338  91.7742157  97.2228050  91.8262672
  78.6939144  25.2812433   1.2595944  77.8812122  25.2992034   1.7649892
  78.6453915  24.4681549   0.7568361   3.2918584   2.8307652  64.6778584
   3.0270141   3.7490183  64.7317171   3.0763504   2.4685307  65.5372620
  48.7804556 101.7145061  56.0466766  48.3232403 102.3848248  56.5544701
  49.1224670 101.1081219  56.7036057  17.3166263   6.5592963  58.7330103
  17.1938467   7.2585237  58.0909491  18.2660890   6.4892721  58.8322544
 102.9901505  94.0296555  64.2743063 103.7597561  94.2604351  63.7540388
 103.2838821  94.1036892  65.1823092  17.8360534  98.3731461  59.5176792
  18.5813010  98.1958389  60.0916100  17.3831892  97.5328445  59.4466734
  97.9502964  85.9070110  41.5340567  98.7350178  85.3746223  41.4036798
  97.7767467  86.2921715  40.6751251  30.1804209  67.8886366  14.6500230
  29.6861124  67.3277378  14.0522921  29.6091747  67.9893780  15.4114449
  25.6760359  98.8069630  65.7785559  25.2785707  98.0054379  66.1188889
  26.2403607  99.1143703  66.4879704  15.8312607   3.3801386  92.4587822
  15.9447157   2.4687435  92.1891212  15.0267076   3.3780968  92.9773617
  21.2041187  20.0910926  68.3028316  20.6664824  19.9997354  69.0894938
  20.7008791  19.6528816  67.6165724  72.9462671  76.4313936  70.6585312
  73.7907505  76.2574768  71.0742712  72.3171997  75.9261322  71.1735201
   1.4185661  36.5255404  84.6860409   0.6504761  36.4871120  84.1161346
   2.1458778  36.7201614  84.0949631  76.7563868 105.5069542  74.9422789
  75.8546305 105.5833244  75.2540970  76.6721916 105.3526306  74.0013599
  69.3293190  88.4291267  51.6081667  69.9721289  87.7740765  51.3362694
  69.5306110  89.1980362  51.0747910 104.8384094 104.7086525  52.5521374
 105.1851082 105.0389194  53.3809662 104.9550438 103.7600422  52.6047325
  11.3071096  16.5055966  80.4303360  10.6014407  16.6565633  81.0591984
  11.8896413  17.2573161  80.5389881  37.9036784   3.4224239  67.0602274
  37.9086065   3.6284599  66.1254740  37.1530271   3.9041013  67.4077034
  72.6231718  93.7124729  47.7271461  73.1744671  94.4545650  47.4789381
  72.0118189  94.0725994  48.3696318 105.3753757  21.5978146  72.7337742
 106.0386276  21.3459802  72.0911980 104.6556950  21.9496298  72.2098398
   5.1181352   5.7079107  37.8126669   5.3115439   5.9596997  36.9096565
   4.7881788   6.5091670  38.2192969  96.7116165  85.2119350  16.4609945
  96.1700630  85.9976101  16.5362906  97.2687435  85.2295780  17.2391486
   7.8755653  67.1079063  67.7466154   8.0529797  66.1968708  67.9806423
   8.3573890  67.6201868  68.3959627  43.9926195  29.7204423  86.5016460
  43.1086731  29.9749970  86.7663479  44.3499994  30.5010247  86.0783195
 101.7738152  11.0686100  72.9167318 101.5601444  11.3363874  72.0229387
 101.9200039  10.1246262  72.8554726  37.1707678  58.9311171  11.0897291
  37.7729750  58.3043861  11.4907086  37.7111745  59.7000360  10.9081900
   8.1326327   0.0818226  13.9778733   7.3578104   0.6242726  14.1249859
   8.7051043   0.6240627  13.4352100  98.5994816  83.7833023  56.0103607
  99.0817356  83.1566429  55.4709578  98.7756348  83.5098362  56.9105911
  48.3554077  71.0552931  12.0839322  47.5428391  71.5552902  12.1611881
  48.8990974  71.5721989  11.4894235  17.5095201  24.0912628  43.9997625
  17.7687371  23.1753659  43.8989067  18.1387377  24.4507957  44.6251059
  37.3535895   3.9394268  57.5694084  37.6973128   3.0532911  57.6827621
  36.5472054   3.9513132  58.0849981  26.7510080   6.0650420  55.4420996
  26.9448090   5.3872627  56.0896254  26.4291000   5.5833220  54.6801615
  73.7440825  98.1086349  53.2679653  74.1568804  98.7431335  52.6820898
  74.4165468  97.9120445  53.9201784  18.7670851  27.6870203  73.0423784
  18.4343934  26.9461513  72.5357628  19.1220927  27.2923732  73.8389063
  12.1285021   8.1436479  73.8619328  11.9835615   7.7005959  74.6979523
  12.2323418   9.0662980  74.0946674   7.0887429  63.9554405  71.0222340
   7.6331347  63.9692736  70.2350330   6.7772257  63.0523396  71.0821676
   9.4057500  80.5484486   8.3477944  10.1566041  80.0200653   8.0771118
   9.2069584  80.2459049   9.2338991  25.3829288   2.6048112  46.4149427
  24.4759035   2.4398553  46.1574078  25.8675122   2.6187015  45.5895853
  42.4923563  10.0322175  70.4795313  42.3250103   9.1326940  70.1983070
  42.8971767   9.9420702  71.3422155  81.3213348  51.3531017  22.8368855
  80.9113216  50.7777119  22.1910882  80.6202126  51.5561628  23.4561038
  36.4998460   6.3095820  89.7462368  36.9659019   5.6087995  90.2022266
  36.1665368   5.8966911  88.9495850 111.4950943 105.8306408  64.0614605
 112.2487831 105.4223347  64.4874573 111.8338680 106.1415958  63.2219553
   1.8310630  39.1028118  66.3488197   1.3848488  39.1682601  67.1931219
   1.7158489  39.9651003  65.9495497  14.3444920  31.0884809  73.2087469
  14.8147547  31.6109920  73.8584137  14.6555340  30.1942968  73.3498764
   7.8930938 100.5157948  72.1188259   7.1731991 100.3169727  72.7175331
   8.3601779 101.2387657  72.5376129  23.0652308  16.8732762  90.4755497
  22.5344992  16.6105092  91.2275505  23.7346220  17.4495149  90.8444691
  95.9360504 100.8828354  74.0257025  96.6416359 101.5145111  74.1648102
  96.2250519 100.0954914  74.4870043  51.1762667  19.0402329  33.4973931
  50.7172155  19.8721886  33.6129355  50.9228516  18.7463570  32.6223803
   6.7696112   5.7073015  46.4356422   6.4922547   6.2921345  47.1408176
   5.9986812   5.1702356  46.2527227  10.3727448  12.6507246  78.2516241
  11.1413836  13.2167065  78.1802750   9.7956991  12.9402351  77.5449181
  40.2348137  14.8056352  33.3118176  39.3175006  15.0746500  33.2628703
  40.4315996  14.4656062  32.4389553 111.4712811  11.3201833  80.5107689
 112.4100399  11.1718440  80.3969479 111.4008522  11.7767549  81.3491154
  34.5728922  43.3347416  73.6623621  34.8334241  44.0683222  73.1053925
  35.3796053  43.0723715  74.1057682  27.3417163  19.4285631  68.5677385
  27.7874255  19.0250111  69.3125343  26.4209986  19.4594717  68.8276577
  94.2234516 106.4591885  24.8981595  93.6923981 107.1445465  24.4925833
  94.3511677 105.8127689  24.2038536  35.2426672   2.6795810  72.3720598
  36.0083580   3.2100585  72.1517372  34.8171473   2.5123307  71.5311146
  79.5617914  72.0802450  65.4434824  80.4164886  72.1210098  65.8725023
  78.9822626  71.6942883  66.1003065  45.6891918   4.4480971  79.8871660
  45.5441427   4.1921300  78.9763021  46.3029146   3.7955746  80.2244949
  46.6256714   9.0606332  49.2491245  47.5039053   9.3824440  49.4525385
  46.5659332   9.1141659  48.2952929  19.6028876   9.9547207  62.8364611
  19.5704818  10.9110570  62.8118896  18.8159704   9.6762919  62.3679829
  82.6163864 101.3357449  57.7514458  83.4213924 101.5398502  58.2274055
  82.3891735 102.1510792  57.3044109  27.6200104  36.0799932  76.0732460
  27.9944968  36.3152695  75.2243423  26.6973948  36.3254833  76.0043478
  51.1602831  47.1998024  17.8808904  50.4290771  47.5014448  18.4199464
  51.3678026  46.3304615  18.2235479  63.0103016  77.2896767  73.5808516
  63.8857841  76.9685173  73.7967682  62.8487206  76.9670200  72.6942778
   9.3518776  99.0659332  65.8874655   9.5125622  99.9816608  65.6597710
   9.9801862  98.8787365  66.5849018  92.9594326  88.1672668  76.7332649
  92.4993801  87.9466724  77.5431538  93.6469936  88.7747097  77.0062065
 109.7778130  14.0574038  74.5613670 110.6808853  13.9267230  74.8505259
 109.3010807  13.3082819  74.9188280  36.9272947  26.4109254  56.7653894
  37.8049874  26.7018938  57.0128298  36.9801044  26.2672138  55.8205175
  70.9880972  93.4187889  57.8962564  71.6984558  94.0591240  57.9360771
  71.3782787  92.6542568  57.4725914  25.3839970  50.1827717  28.3554673
  24.8788929  50.9525585  28.6172557  26.2920213  50.4144001  28.5505915
  73.8880682  58.8488007   2.6716813  74.2064953  59.3760395   3.4043866
  73.1379986  59.3376112   2.3330215  79.1035032  57.3367929  14.4761634
  79.8052740  56.8552399  14.0381515  78.4813070  57.5411320  13.7780595
  37.5035596   1.7634675  49.1456556  37.6816392   0.9890041  49.6792507
  38.3334875   2.2401589  49.1308975  11.1689091   8.8318783  56.3751030
  12.0847571   8.9692140  56.1330462  10.8813524   9.6792352  56.7150021
  23.2760262  12.8470695  56.1202765  23.3593893  11.9899964  56.5382576
  23.9328599  13.3906472  56.5553904  79.4106770  77.3288202   3.6778775
  79.3273687  76.4623213   4.0759626  79.4441843  77.1577787   2.7366796
  91.8445396  92.4940872  13.7510788  90.9794044  92.1820545  14.0164399
  92.0444298  93.1987095  14.3673408  19.3818486  87.6822758  72.2570229
  20.2654600  87.3154354  72.2272348  19.2269170  88.0061054  71.3696909
  67.7924299  83.3491421   0.4477983  67.8326607  84.2578125   0.7460154
  67.7686691  82.8333759   1.2538028  71.1918497  30.8917403  73.7928391
  70.3191710  31.2805581  73.7337875  71.6196442  31.1376953  72.9726410
  21.1515093  21.9135475  58.1138420  21.1553717  22.8540611  58.2917452
  21.6030955  21.5261054  58.8636351 108.7169361   9.1361791  85.2632141
 108.1649971   8.9992368  86.0331821 108.2419014   8.7108612  84.5492935
  43.2314014  44.2829037  56.8457747  44.1355419  44.5757914  56.7318678
  43.0300617  43.8080692  56.0394096  23.4970427  30.0829697  76.4701366
  24.0216637  30.3564906  75.7176781  24.1328502  29.7173977  77.0852280
  73.7607050 101.6581631  82.6548386  73.4560108 102.1966076  83.3852386
  74.1466331 100.8870602  83.0704021  15.5999935  88.0980587  83.7707901
  15.4847717  87.1695900  83.5685825  16.5275574  88.1817436  83.9918137
  18.0756271  27.3003840  84.8708344  18.5889196  27.1790576  84.0720558
  17.3899043  26.6346073  84.8183346  53.9809847  49.6898985  23.8665748
  53.2577276  50.1202154  23.4105444  53.6323357  48.8335276  24.1141725
  51.0382748  30.9161091  76.0023212  50.3074360  30.9518003  76.6194391
  51.6088152  30.2287769  76.3462543 108.1082249  96.2321949  30.8969665
 107.5674248  95.7823849  30.2477837 108.6840343  95.5502892  31.2429190
 111.0510254   7.6532000  84.6856689 111.7359161   8.2963073  84.8688984
 110.2354908   8.1522512  84.7312260  38.8310599  22.8168440  74.0417290
  39.6614456  22.5802994  73.6285257  38.2433629  23.0023527  73.3093166
 102.0186520 102.9249001  78.7538481 102.4778557 103.2709789  77.9886055
 101.8401146 102.0108223  78.5329008  42.5517273  13.5365367  34.7459483
  42.6283646  12.7103543  34.2686820  41.7892551  13.9668250  34.3590164
 110.9730053   3.3361518  80.2370834 111.1049366   2.9285663  79.3810987
 110.1003075   3.0499256  80.5067062   1.0111891  90.6630421  67.4219322
   1.7974767  90.6502342  67.9676580   0.6747665  91.5550804  67.5074911
 105.6835270   0.2502533  83.4494972 106.3095379   0.9467859  83.6474514
 105.4375648  -0.1010353  84.3052578  50.4634714   4.9232197  92.4247360
  49.8009443   5.6134582  92.3953438  50.0186539   4.1493934  92.0789528
  50.0029278   7.3505217  74.8671436  50.4641438   7.4033558  75.7042313
  49.3613720   6.6510040  74.9908972 100.5518436  71.1245251  45.0104523
 100.2301598  70.4883194  45.6491947 100.1005173  70.8969736  44.1975832
 112.9436111 104.1982555  76.7821455 112.3232460 104.5886803  77.3977280
 113.7689972 104.1605949  77.2654152   7.4070889  50.6433678  74.7801542
   6.9856709  50.2058601  74.0404081   7.9280889  49.9580288  75.1986027
  46.5889978  70.3276587   3.4656957  47.2724438  70.3368807   2.7955833
  46.9956732  70.7391930   4.2282483  84.2200565 104.6168613  74.5923376
  83.8070679 103.7638187  74.4582319  84.0672302 105.0883484  73.7734509
  77.8464985  62.4217939  59.0812302  78.1539965  63.0218697  59.7606325
  78.2962275  62.7089977  58.2865667   4.8323995  95.2964115  78.2603502
   5.4562116  95.9811211  78.0189657   4.0348342  95.5189228  77.7801323
   7.7997321  19.6172678  51.9722605   7.8486705  19.4315720  51.0345221
   8.6293685  19.2944157  52.3239756  75.2915144 104.1607094  52.2528410
  74.4009733 103.9950371  51.9434500  75.1984167 104.2798233  53.1980276
  57.7894545  66.4824820   4.8665598  58.4289265  66.8236113   5.4918092
  56.9402266  66.6664457   5.2680647  10.2871358  23.9485621  79.9039793
  11.1648488  23.8642168  79.5315075  10.4349184  24.2579484  80.7976627
  36.3667393  21.6397166  57.9199457  36.4969730  20.8303118  57.4258471
  36.7606425  21.4646268  58.7745905  38.0549836  11.2721133  75.0528765
  37.2881055  10.9591293  74.5731163  38.6846113  11.5068340  74.3711805
  17.5529480  38.3864641  61.9174337  17.5100267  38.1838155  62.8519487
  16.7739284  38.9173198  61.7514420  48.2176018  38.1577325  72.5955725
  48.4434652  38.6810708  71.8265915  48.9322615  38.3171082  73.2120848
  11.5963233   7.4070323  82.8561211  12.2902393   6.8099087  83.1356812
  11.7160368   8.1850588  83.4007072  22.0724297  11.0452163  72.4952269
  22.5125217  11.8914533  72.5754261  21.3597465  11.0844898  73.1330109
  86.8841267  94.3261719  50.9972954  87.2988510  94.6596336  51.7929268
  85.9528828  94.5128727  51.1163092  33.0092311  36.3811088  55.7801056
  33.5325885  37.1719265  55.6499767  33.6482286  35.7058001  56.0078621
   1.0196616  51.8965244  75.4677916   0.4533857  51.1876392  75.7728243
   1.4242746  52.2395706  76.2645578  31.0955167  23.1436801  73.3777809
  31.1571550  22.6166701  74.1744614  30.4145932  22.7151322  72.8592062
  32.3694444  20.5407310  46.8458414  31.9599962  20.0418496  47.5527334
  32.1343184  21.4506483  47.0274925  34.8532987  10.5551839  53.2173824
  35.7668781  10.5505788  52.9317474  34.3615627  10.8281469  52.4428368
  30.3906345  13.8862050  51.3123369  31.1012864  13.9945912  51.9443655
  30.6327987  14.4531274  50.5800867  29.9212646  47.0966959  47.6473618
  30.7216454  47.3088980  47.1671581  29.7619581  47.8632736  48.1980085
  22.1690392  72.6174021  55.0149536  22.1682024  73.5108519  54.6714735
  21.4282393  72.1935177  54.5816326  14.1068196   2.0232414  54.3209696
  14.5469940   1.7357266  53.5210848  13.6873198   2.8491479  54.0798712
  86.0011005 104.5957088  77.5244284  85.0617790 104.6272469  77.3430061
  86.0579491 104.4611359  78.4704113 100.9120846 105.3981018  68.1581926
 100.5053329 104.6024323  67.8151083 101.7822456 105.4132462  67.7596664
  40.9757805  33.0669236  87.5615692  40.0358677  33.2444501  87.5973129
  41.0525846  32.1381545  87.7800179  25.2343154  31.4396405  56.6632318
  25.0612020  30.9884095  57.4894571  24.7290039  30.9513903  56.0132265
  61.5123415  99.0348530  32.3399591  61.7574978  98.2691288  32.8593898
  62.3410368  99.4807243  32.1647644  88.6755466  92.4800873   8.3632910
  89.0094471  93.3215046   8.6743748  89.2680073  91.8317699   8.7439543
  97.9751587 106.8836689  70.0601721  97.4171257 107.4486542  69.5257330
  97.3654938 106.2888813  70.4969454 112.9247284   1.1574873  64.1052198
 112.4003220   0.4049130  64.3788147 112.8798103   1.7625719  64.8455477
  53.2757378  88.5741425   9.5611155  54.1969967  88.4545708   9.7918051
  52.9209471  87.6859093   9.5237726  13.5457197 107.3523807  75.9147930
  13.8584676 106.7191456  75.2687025  13.4715047 106.8499522  76.7261457
  75.7335234  37.6756954  75.7434177  75.5398846  38.0960584  74.9055433
  76.1247301  36.8352580  75.5049801  52.5618505  25.7667065  48.8561630
  52.6049423  24.8311067  49.0537167  53.2884502  25.9175587  48.2515764
  12.1085298  23.9154673  82.3524952  12.0351791  24.6978617  82.8990364
  12.8991115  23.4769034  82.6669502  17.2503459  15.0278544  61.8007088
  16.4498007  15.5525780  61.8056679  17.8242028  15.4604673  62.4329805
  30.2367640  25.4621005  51.8365240  29.5407605  25.1906419  51.2380886
  30.1763654  26.4171815  51.8566322  31.2363935  13.6848772  76.5802860
  31.5553665  14.4948506  76.1822510  31.9902563  13.0953515  76.5607405
  43.7322855  31.0292554  59.4639301  43.7026215  30.8989000  58.5161114
  42.8159475  31.1338139  59.7201109  42.5698566  38.0774236  62.7290869
  42.4577475  38.8448167  62.1680403  43.0573654  37.4552131  62.1892500
  59.1408730  21.0865784  64.6251869  59.1416407  22.0435262  64.6471786
  60.0021696  20.8542848  64.2781496  34.6666145  32.7716255  36.0092807
  34.2826843  33.3756089  35.3736424  34.5294023  31.9041729  35.6285810
  79.3987083  66.3029099   6.4140862  78.7696075  66.4727688   7.1152371
  79.3131876  67.0549917   5.8281779  48.6170483  86.9347382   5.0316042
  48.6398745  86.9326210   4.0746787  48.9819670  87.7846432   5.2780145
   6.7334849  97.7432919  66.2086105   7.3796171  98.4491634  66.2307453
   7.1071160  97.0952225  65.6114244  55.7209158 102.1904659   1.5907846
  55.8663511 101.7116070   2.4067321  55.3395510 101.5430260   0.9978148
  59.2597914  69.0432835  32.8959370  58.4889698  68.8549376  33.4312797
  59.4805527  68.2047415  32.4905396  48.9305687  41.8837261  77.6078653
  49.6196175  42.4226284  77.9964924  48.9979696  42.0501566  76.6676569
  16.2676454   3.9663854  57.3622465  15.4218423   4.3786618  57.1865273
  16.8481159   4.6949732  57.5823498  51.9451046  25.0742936  76.2797213
  51.7525911  24.7034931  77.1409321  51.0863686  25.2787828  75.9095955
  70.5215454  31.0167456  58.5835028  70.7090616  31.3449049  59.4629240
  70.3881693  31.8050003  58.0571032  66.0989285  30.4464841  56.0095787
  67.0350027  30.5937219  55.8742476  65.9969568  29.4958210  55.9640360
  60.2384377  26.6899800  77.5447798  59.7642422  26.4257336  76.7563963
  60.3959942  25.8713698  78.0151892  22.5058270  28.6105895  87.1605968
  22.0922971  29.4734383  87.1338654  21.8082500  28.0193329  87.4435043
 107.1347237  67.4052382  32.9044008 106.6922379  67.5946903  32.0770311
 106.4502335  67.0374346  33.4633517  17.7254319  47.0324993  73.8324785
  16.8017828  47.2360945  73.6853313  18.1824076  47.4532223  73.1042004
   3.4742242  16.8347251  83.2889748   3.7671080  16.8082261  82.3780632
   2.5223508  16.9180501  83.2321739  27.2054529  16.3983810  92.3865891
  27.1669507  16.7799985  91.5095997  27.5483131  15.5153906  92.2487259
  40.9391308  32.8558779  60.2524948  40.9948254  31.9638610  60.5951834
  41.5386200  33.3612466  60.8015394  16.6009724  35.4864860  33.2827091
  15.8692718  34.8693776  33.2777143  16.2126923  36.3205147  33.0183840
  32.3967624  13.3704340  89.5094681  33.3091068  13.0859554  89.4553089
  32.4070382  14.0888882  90.1418877  56.2107992  75.2943516   1.1510774
  56.1140776  74.5036840   1.6818540  57.1568394  75.4243851   1.0852425
  14.0639174  12.9605007  89.7175026  13.2047796  12.8208876  89.3192291
  14.6457767  13.1333828  88.9773846  85.8010101  96.8436909  87.4304962
  85.1673603  96.1678505  87.1897697  85.8199787  97.4335670  86.6768932
  61.2682295  26.6981411  91.9645500  60.5986738  27.3521876  91.7641830
  62.0761108  27.2030711  92.0573139  10.4297566  92.0284557  78.4061337
  11.3430309  92.2782993  78.2656240   9.9302208  92.8163719  78.1919050
  34.9043036  11.6860330  78.9664507  34.6919608  11.8779695  79.8798513
  35.8274150  11.9239998  78.8800478  26.6340470  21.5650511  65.6542253
  26.0687423  22.2835827  65.3707170  26.4077759  20.8387399  65.0732708
   7.2802913  16.6958594  42.6900721   8.1433910  16.9096005  43.0444813
   6.6854626  16.7919695  43.4338284  37.2090816  11.8771017  62.7057791
  37.9015899  11.6124845  62.1002674  37.5551033  12.6572645  63.1391954
  12.2128725  75.5927038  82.3371696  12.5137830  75.6252766  81.4290810
  11.9762158  76.4969110  82.5436497   7.9742992   0.3277514  34.6263456
   7.4054933   0.4619964  35.3844142   8.0616957   1.1971539  34.2355347
  30.4169154   2.8591755  50.2799320  29.8746943   2.3349832  49.6904850
  31.2837386   2.8564501  49.8739290  53.4686947   9.7306728  46.4136028
  52.9605579   9.0535879  46.8603516  52.8975630  10.0315773  45.7068539
   5.9753269  13.0143857  83.7406540   6.5596592  12.3679781  83.3444881
   5.4097736  13.2980251  83.0223656   5.4141736  97.3190689  76.1701965
   4.4880158  97.4522877  76.3719797   5.4163277  96.9522858  75.2860594
  27.0782280   8.1338108  64.2234564  27.7591658   8.3686650  63.5930586
  27.5582576   7.7993506  64.9810457  28.1437206  35.9717083  59.9866867
  28.0768967  35.2440977  59.3683434  27.7056623  35.6555247  60.7768488
  31.9987130   1.6444910  42.8703165  32.4582505   0.8328840  42.6550245
  32.3119140   1.8720891  43.7457228  35.2967834  10.1622105  35.3685403
  35.9020066  10.0129378  34.6421409  35.8034039   9.9445909  36.1509800
  22.6324105  42.6406097  85.1851845  21.6867089  42.6769114  85.3285789
  22.7811003  41.7844915  84.7837067  35.1070738  52.7292728  91.8733788
  34.3024707  53.2006264  92.0894146  34.9498677  51.8352842  92.1771908
  49.6930504  84.7673130  24.8931575  50.5929184  85.0731945  24.7795343
  49.5213652  84.2344666  24.1167402 107.1796322  50.9544849  71.4211130
 106.6232300  51.4056587  70.7862234 106.7968464  50.0804043  71.4965296
  20.6305051  10.6388974  85.1738644  20.5080152  11.2966001  84.4892788
  21.3582015  10.9722435  85.6988049   3.3265108  16.4879811  53.7436152
   3.8595289  15.7014430  53.8597155   3.9136413  17.1150076  53.3212996
  97.2394943  31.2936187  72.1619558  96.8398380  30.4264045  72.2286415
  98.1768417  31.1345387  72.2729063  28.1399083  38.1443667  90.4586220
  28.8972020  37.6104617  90.2184391  27.6338625  38.2199097  89.6496487
  23.1316686  21.9432688  46.2001467  23.4880805  22.5259066  46.8707705
  23.4124446  22.3317075  45.3715849  22.6614332  93.1168842  76.1772966
  22.4704862  92.7053165  77.0201349  22.1560860  93.9297485  76.1877298
 110.4554081 104.3481541  44.4337893 109.9121189 104.2615795  45.2170992
 110.2569771 103.5671616  43.9171553  27.6212001  16.5186787  61.9635391
  26.7672968  16.4867043  61.5321970  27.8930664  15.6029403  62.0247316
  12.5291002  93.1086636  65.3050709  12.7992177  92.2656250  64.9409723
  11.6511583  92.9496002  65.6516933  53.4009027   4.0246364  74.9471903
  53.1003237   4.5716831  74.2215014  54.0367365   4.5697397  75.4106665
  30.8484697   4.6388713  74.3937969  31.5662479   4.9857512  73.8639832
  31.0790491   4.8736915  75.2926445  35.3995395   2.1946362  36.8795443
  35.1749039   1.2815472  36.7005467  34.5951080   2.6796874  36.6955709
  44.3976450  41.2566423  57.1740532  44.7603941  42.1121454  57.4037600
  44.7054815  40.6721401  57.8667450   7.9568321  38.1819987  91.0461712
   7.9650265  38.0804992  91.9979477   7.0321393  38.2928658  90.8250809
  48.4589338  56.3037586  11.7738521  47.5664186  56.1691904  12.0925093
  48.8745260  55.4453993  11.8559277  55.1310492  37.0412755  72.2545862
  55.8558702  36.4845371  72.5390291  54.3623877  36.6763330  72.6930046
  78.8703203  81.3761711  22.6256990  77.9336739  81.2084103  22.7295327
  79.2956257  80.6616020  23.0997705  48.6139774  39.8563385  87.5549126
  48.0605030  40.6103039  87.7584743  48.9604235  40.0422144  86.6821861
  11.0399652  32.8951049  51.7122555  10.6328356  32.0306945  51.6550398
  11.2061274  33.0202198  52.6465845  64.3719435   7.4812132  64.1353321
  64.0918732   8.1813800  64.7248745  64.4784212   6.7181289  64.7033119
  48.9556074  38.7908673  52.6905632  48.9057636  39.1107368  51.7897701
  48.5174751  37.9401469  52.6672268  55.4903221  17.8241587  87.2709370
  56.3189220  17.5226521  86.8984509  54.9191618  17.0567870  87.2370243
  35.1948118  25.3875685  71.4385700  35.3784680  25.7202148  70.5600214
  34.2959023  25.0624728  71.3885212  26.8600678  15.2693152  53.5117531
  27.2570467  15.2145088  54.3810225  25.9212255  15.3464496  53.6816263
  48.9484167  36.6853619  75.9426832  49.6859217  37.2636151  75.7478905
  48.1734800  37.2273993  75.7947111  32.2595167   9.6157867  59.7871447
  32.0224762   9.0800250  60.5441141  32.5010061  10.4636621  60.1600027
  89.1563892  92.0117283  90.9307671  89.8511791  91.3534927  90.9455490
  89.5454407  92.7800655  91.3485146  13.5180545   9.1126394  64.0547705
  13.5500407   9.9916780  64.4322634  14.4290864   8.9099514  63.8422394
  72.6875305  38.1337738  41.4867783  72.2167253  38.3452535  40.6806469
  73.4909821  38.6517477  41.4378214  77.5656128 105.2268314  77.4744129
  77.4302864 104.3744755  77.8884268  77.4261808 105.0647449  76.5413952
  17.1190262  74.9924994  15.2166772  16.8101597  74.2482328  15.7333040
  17.4059331  74.6068716  14.3889022  95.5827999  92.9113007  87.0373440
  94.6705914  92.9912472  87.3161221  95.8282852  92.0170784  87.2747040
   5.2455753   6.6433531  58.2973289   4.3486613   6.3090241  58.2981014
   5.3127146   7.1470916  57.4861717  29.9489713  38.4117794  86.6619778
  30.5171061  38.3920550  87.4320889  30.5507684  38.3647823  85.9191132
  37.8039479  13.7037003  76.7467976  36.8539476  13.7058020  76.6296482
  38.1435156  13.3100390  75.9430838  46.1556244  14.2301798  88.1487656
  46.5433121  15.0151455  88.5357475  46.1947155  14.3841612  87.2048378
  50.2820444   8.6341071  38.1628704  50.0657415   8.8355690  39.0732861
  49.4336510   8.5166544  37.7354765  20.9627199 104.0651321  77.2395515
  20.0934172 104.4343662  77.3951530  20.8831096 103.6100864  76.4012003
  44.8573399  36.7691755  58.2161283  44.1170931  36.5175724  57.6638985
  45.3492355  37.3963881  57.6861477  31.4381576  52.3566914  66.0484266
  31.6302943  52.3472548  66.9860983  32.1825719  51.9085407  65.6468821
  54.0915537  36.4249492  79.6106672  54.2740870  37.2247028  80.1039314
  54.8515654  35.8656812  79.7714090  10.6607914  43.3497763  84.9176502
   9.9414122  43.0653715  85.4814243  10.2359855  43.6104822  84.1004658
   8.7658358   6.5994364  70.2731752   7.9587382   7.1140265  70.2684212
   9.2913198   6.9845784  70.9744358  66.6280365  24.3342566  77.9243040
  66.6812277  23.5013461  78.3929873  66.6275740  24.9977207  78.6142635
  20.5458641  74.7358561  77.9083014  20.6559896  75.6692123  77.7267694
  19.8885572  74.4448471  77.2762489  30.1617622  18.5365617  77.9731035
  29.2569685  18.4811819  78.2805347  30.5235434  17.6653111  78.1351805
  10.8044839  13.7386167  62.4258280  10.5234849  14.2318475  61.6551208
  10.5845451  12.8296506  62.2217751  32.3218560   8.8021094  85.8425522
  33.0825067   8.3523178  86.2104225  32.4845314   8.8155085  84.8993683
  25.4861712  14.9148750  81.3199902  25.0231910  14.8958790  80.4824257
  26.3099599  14.4585168  81.1487007   3.7058502  60.6987858  79.6286440
   4.4438890  60.7424068  79.0206718   3.2872665  61.5568018  79.5591593
  23.3178473  70.5517769  63.2675982  23.2732368  69.6811152  62.8723955
  23.0508995  71.1468029  62.5669479  45.4419947  14.6355057  31.9133592
  45.0726032  15.2775741  32.5195980  44.8342085  14.6269310  31.1739326
  21.9180679   0.6516560  66.0849810  22.5037789   0.4996298  66.8266392
  21.4767146   1.4751139  66.2932014  35.5465603  28.7132359  83.2753754
  34.8480392  29.3558693  83.1515884  36.3055992  29.2326212  83.5405731
  97.6638126 103.0873966  73.1214523  98.3673286 103.6911488  73.3597231
  96.8677521 103.6168671  73.1681252   8.3226401  29.4477534  44.1919279
   9.2302775  29.7408915  44.2725229   8.3600605  28.7206554  43.5705090
  25.6064773  13.6797047  57.4114513  25.6173658  14.4768679  57.9412079
  26.5153432  13.5638142  57.1343899  42.4068642  18.2031786  57.2454977
  42.8280592  18.8953757  56.7359018  41.5421438  18.5544610  57.4578285
 102.2123718  90.8530235  73.1630659 103.0262375  90.9609890  73.6552048
 102.1808243  91.6134548  72.5825644   3.3786169  25.7647347  56.2154627
   2.6553622  26.1128092  56.7369747   4.1107404  25.7074547  56.8294239
  75.8380222  34.6143723  80.4369068  75.3787470  34.3345857  79.6450663
  76.3572931  33.8526106  80.6944180  21.3211155  14.4321764  59.0324259
  21.5877891  13.5460639  59.2772150  20.3669381  14.3868864  58.9713955
   6.8606108   3.2138148  61.8334723   6.5702915   3.7347680  61.0847712
   6.7249525   2.3063400  61.5608597  44.0166712  26.4776278  54.9004126
  44.5456791  27.2378731  55.1420975  44.4704199  26.0998464  54.1470003
  24.5842242  92.6436329  87.5943470  25.4150987  93.0711079  87.3866367
  23.9541006  93.0395508  86.9923306  45.0680208   0.7533526  68.1338930
  44.2953825   1.3140276  68.0638552  45.1983786   0.6417220  69.0755844
  21.0546160   9.7785848  78.2792807  21.9663715   9.8456180  78.5629034
  20.9803462   8.8950908  77.9185104  49.7051716   5.6109625  27.6247144
  49.6405602   6.3154894  28.2694626  48.8428402   5.5860096  27.2099853
  50.9335852  19.5783067  83.1996632  51.1492252  18.7240660  82.8254890
  51.2004089  20.2075672  82.5295448  33.7294555  40.5580282  87.7567387
  32.8845263  40.9659863  87.9461956  34.0105152  40.1892567  88.5941410
  16.3566661  12.1292543  92.6702499  16.8985486  11.9541335  93.4396267
  16.8102956  12.8380394  92.2140980  31.7920256  48.7666893  68.0742359
  31.2088966  48.0573225  68.3443975  31.5705061  49.4936323  68.6562300
   9.6741045   6.1950189  78.4948587   9.6152872   7.0854992  78.8410044
   8.9936620   5.7108039  78.9625835  48.7836313   7.5597388  64.3383551
  49.1491842   6.7290342  64.0341616  49.5372391   8.1473947  64.3928480
  76.0231161  19.6815979  44.8002338  75.2917194  19.3757045  45.3366280
  75.8607864  19.3036211  43.9359331  41.4565229  42.2990704  62.7926111
  41.9480515  41.5127230  62.5553703  41.4854050  42.8455973  62.0073032
  96.5962601  85.1621342   1.0404591  95.7104588  85.5193901   0.9776135
  97.1060467  85.8575153   1.4561415  29.1239810  48.9594460  71.9991302
  29.5976114  48.1366587  72.1212816  28.2452750  48.7820959  72.3347712
  15.1297069  99.1851139  76.8391180  15.0370073  99.2144299  75.8868694
  15.3530979 100.0826073  77.0857573  44.2893457  32.8674006  67.6592445
  43.5921621  33.1598234  68.2463169  44.9730730  33.5310984  67.7501106
  14.8996449  43.1563330  79.8745918  15.6801867  42.8071213  80.3047466
  14.4264531  43.6124182  80.5705166  34.8535538  27.2234511  60.4382372
  34.5071721  27.9933453  60.8893633  34.9559498  27.5045228  59.5289850
  16.6942298  15.9954691  89.4194317  16.4756143  16.9108391  89.2446804
  16.0094905  15.6956160  90.0173092   3.3271995   4.4180176  73.6016321
   4.0446395   3.8810596  73.9380646   3.7148359   5.2841377  73.4759140
  64.4197130  21.9692659  91.5256119  64.7208118  21.3745594  92.2125626
  64.6777964  22.8387785  91.8315125   3.2328120  85.4660797  80.9018612
   3.5903633  84.6784210  80.4920006   3.0969429  86.0737514  80.1748753
  20.6442213  50.6891966  36.2330866  19.8145354  50.2123547  36.2549496
  20.7085323  51.0976696  37.0963621  16.3409424  43.1793976  66.5906906
  16.8404412  42.3796177  66.4261246  16.4105880  43.6771679  65.7760668
   1.4921243  13.7038779  81.9342899   0.9485781  13.6878991  82.7220345
   0.8868524  13.9369690  81.2303448 102.0143700  68.3854294   1.3898468
 101.5844536  67.5929594   1.7113958 101.6771412  69.0848160   1.9496368
  22.8202415   0.0117067  43.7552452  23.2687259   0.7411183  44.1830873
  21.9008064   0.2768328  43.7311840 103.5156918  14.4508123  32.3675132
 103.3962440  13.5041511  32.4436522 103.6208820  14.7522938  33.2698870
  25.2666998  35.7290912  59.6866703  24.3367124  35.7558393  59.4616365
  25.4266405  34.8189616  59.9362993 101.2086296 100.7671738  64.6967983
 101.3388824 101.0279846  63.7850714 100.6589794 101.4577293  65.0672770
   8.1263906  34.3463588  43.8956499   7.9442543  33.6486506  43.2661581
   7.4446625  34.9985909  43.7341881  58.8071394  10.6781673  49.7940016
  58.4492636  10.6980252  48.9064407  59.0760660   9.7686976  49.9235201
   2.0977873  10.9201741  64.8911095   1.4314082  10.8822870  65.5772114
   2.5700510  10.0913227  64.9698782  52.5020552  13.3720183  85.1410866
  52.0892334  12.7976060  85.7859612  51.8423939  13.4752166  84.4552040
  43.7992206   3.7811617  92.6474882  43.7607208   4.5204834  92.0407372
  44.3576351   4.0868000  93.3623232  19.9312317  51.4536619  59.8686981
  20.6926870  51.6466951  59.3217468  20.2829719  50.9413290  60.5967283
  23.4983850  62.6433325  32.1166825  22.9578304  61.9971943  31.6622186
  22.9637837  63.4372473  32.1282649  58.1392097  24.2104053  77.3578453
  57.8727770  23.3766365  76.9704485  59.0517092  24.0750861  77.6133108
   5.8697283  25.8946753  58.0601931   6.5100837  26.0675287  57.3700523
   6.3383257  25.3469515  58.6899948  18.1855726  74.9658012  74.7317886
  19.0087759  74.4790220  74.7719812  18.4261179  75.8627319  74.9639082
  50.9629631   0.3302131  59.7365999  51.8711758   0.2343005  59.4499350
  50.9497356  -0.0411750  60.6187153   9.1824859  14.0614343  52.1519518
   9.7373778  14.2782438  51.4027357   8.9460874  14.9092412  52.5282097
  79.9012756 100.3594494  65.0232935  79.1740704 100.0832176  65.5810642
  79.8111916 101.3106728  64.9659061  53.8928938  42.6835537  70.7830143
  54.0813875  43.4293842  70.2134132  53.6627293  43.0771112  71.6246605
 105.0803852 104.6296120  55.4903889 105.4919815 103.7672138  55.5460405
 105.5700207 105.1692009  56.1111355  25.1962304  28.7958789  64.0027523
  24.6296310  28.0350709  64.1306877  24.9186850  29.1627645  63.1633520
 101.4669132  26.5857553  58.6831713 101.2069702  27.0625877  59.4713926
 102.4088001  26.4493227  58.7854671 102.9548550  85.0482750  77.1259308
 103.6459446  84.3928242  77.0310259 103.1927490  85.7385159  76.5068865
  39.6876073  23.1110859  63.4312773  38.8472414  23.1509089  63.8878202
  40.3215694  23.4427786  64.0671253  14.3068945  91.2343025  80.1292610
  13.6157525  91.8937016  80.0680637  13.8389206  90.4057026  80.2324677
  90.4773331  87.3514557  58.6884880  90.7883835  87.0567036  57.8325701
  91.1995220  87.1568489  59.2858124  26.1878467  30.4850173  46.3627195
  26.8395829  29.7912717  46.4636660  25.9888935  30.4923487  45.4264545
  54.2987871  28.7859249  51.1536360  54.4382429  28.7716699  50.2067566
  53.5272312  28.2361698  51.2903976   0.2361639  13.7308300  84.7377586
   1.0846907  14.0532494  85.0415325  -0.3913675  14.0698016  85.3761387
  10.9733236  94.6868229  71.7422009  11.2775779  95.5896568  71.8346405
  11.7696428  94.1587162  71.7989254  28.1404972  41.0258961  26.1018753
  27.1978831  41.1005640  25.9530854  28.4949636  40.7475662  25.2574134
  79.0322733 107.1903801  74.3123722  78.6350918 107.8587055  73.7539625
  78.3019161 106.6270065  74.5681381  60.7093525  58.4211493  22.1565557
  60.1099920  58.7872458  22.8069186  60.3209352  58.6560869  21.3138390
 108.6326504   1.7358983  40.8613062 109.0255070   2.5774860  41.0928822
 108.8467979   1.6181767  39.9358273  45.3531408  35.5460978  74.4615746
  44.9328804  36.2037158  75.0157881  45.5937576  36.0214305  73.6663437
  71.0401440  31.9336653  50.4885149  70.4926777  31.9780183  51.2724447
  70.4195690  31.9697905  49.7606325  26.9651723  48.9615679  59.2770576
  26.7634106  49.6403217  59.9211216  27.6688266  48.4518623  59.6786833
  42.6482296  44.0912676  64.4331074  43.2150364  43.9024830  65.1809883
  42.5101900  43.2406378  64.0164518  63.4432745  64.4503641  10.1141608
  63.3595085  65.2979374   9.6773106  62.5753403  64.2835331  10.4817033
 110.4681110   8.6731327  71.4431477 110.8410835   8.3758116  72.2730398
 110.0990868   9.5338655  71.6411161  30.1478100  34.0937924  45.0321341
  30.0044537  34.7028089  45.7565498  30.8082390  34.5213413  44.4869089
 100.4022598  69.5408440  15.6149507 100.0532150  69.0164328  16.3356388
 101.3506699  69.4243765  15.6714189  21.7179275  21.3058853  60.7649326
  22.4732256  20.7178760  60.7636118  22.0344305  22.1013689  61.1930275
  22.7460098  21.3509655  55.8321476  22.1984339  21.3595009  56.6172075
  23.6241627  21.5603137  56.1503506  17.6295161   8.6793166  73.0468082
  18.4665108   8.2266331  72.9431295  17.1897161   8.5655522  72.2042704
 113.1154346  28.8905668  88.3083534 112.4445438  28.3216429  88.6857891
 113.1265545  29.6589947  88.8789940  97.0563221  94.2835617  59.9521971
  96.4681625  93.7288475  60.4646397  96.4725399  94.8550892  59.4534206
  36.6251111  18.4562182  80.1732922  36.6890860  17.6114500  80.6188393
  36.3286924  19.0629578  80.8516979  47.2948074   1.4287156  29.2627907
  46.5532446   0.8301255  29.1732740  47.8943729   0.9798186  29.8588133
 106.9640255 102.7194214  61.4053202 106.3251400 103.3824635  61.6669130
 106.7948055 102.5780869  60.4738569  20.5762172   5.4457784  90.1533985
  19.9421036   5.4139125  89.4370747  21.3623333   5.0329101  89.7959137
  73.6142159  41.6040230  82.5061989  73.2604551  40.9859180  81.8666363
  72.8599215  41.8549061  83.0394173 110.3105259   3.6022705  37.2686696
 110.5598164   3.3717722  36.3737082 110.4938126   4.5394480  37.3345208
  22.4462605  49.4488192  48.7312698  22.4973869  49.9270153  49.5588875
  21.6590238  49.7891665  48.3062363  10.5736685  40.0951862  47.7839041
  10.3331065  39.5045733  47.0700836  11.3745463  39.7176123  48.1475830
  24.2553592  44.9068928  84.0561390  23.5130715  45.5076027  84.1224098
  23.8731241  44.0387630  84.1844845  38.6614013  47.4303436  60.9839487
  39.4481206  46.9617844  60.7050943  38.6988020  48.2627726  60.5128908
 108.2865334   4.4046539   4.1195691 107.8278065   4.8343331   3.3976442
 107.7311802   3.6586401   4.3460083  19.3245423  21.3846993  85.3316402
  19.3658853  22.1226692  84.7234249  20.1333141  20.8979368  85.1729488
  77.7265930 101.7782402   0.1003691  78.6480331 101.8283272   0.3546618
  77.2635412 102.2676373   0.7802948  57.4919176  27.3015785  65.1669788
  58.2712936  26.8357849  65.4700375  57.4366665  27.0943785  64.2341089
  17.5456321  69.2365503  91.7015362  17.6967943  68.8547373  90.8368969
  18.3807540  69.6428823  91.9332600  22.1307975  54.6375686  93.2889924
  21.2580806  54.8517511  92.9592647  22.7212744  54.8698182  92.5723086
  18.5139358  53.7052488  62.7686357  18.5234010  54.5695877  63.1798077
  19.0573108  53.8058519  61.9870663  31.2374020  40.9947968  88.3805847
  30.6190419  41.7120695  88.2413578  31.0915208  40.7254314  89.2874432
   7.5703031  24.7666907  71.7326164   6.9221401  24.0969610  71.9507456
   8.2412779  24.6801877  72.4097729  46.7524672  46.8678093  83.0959892
  46.1531401  46.4028311  82.5121784  46.7542696  47.7677965  82.7700424
  54.7476816  33.8700938  52.0011950  54.0957260  34.0556288  52.6770353
  54.9073315  32.9291368  52.0742941   7.3803753  23.5229373  75.4776239
   7.0600361  24.1868114  76.0882664   7.7925187  22.8633022  76.0355234
  41.4823437  10.4195726  52.3889017  41.0288668  10.2373457  53.2119322
  40.8514404  10.9227705  51.8741369  35.4006529  22.3313928  79.0840244
  34.8204231  22.7607584  79.7126818  35.0857973  22.6241350  78.2288027
  74.6957731  29.5886612  65.5289173  74.6006918  30.3435230  66.1097574
  75.2858210  29.8906374  64.8383474 101.8478146 107.0439041  58.5167217
 101.7884532 106.6916828  57.6286650 102.1737996 107.9361792  58.3992004
  78.2504654   9.7682577  58.1562424  77.3582315   9.4541669  58.0096340
  78.1820631  10.7210469  58.0950403  93.8253021 101.6743374  25.1843524
  94.7023964 101.6907406  25.5673170  93.9326382 102.0770073  24.3226314
  42.7978706  29.3390059  54.5402622  42.4429846  28.5186291  54.8827076
  43.3100843  29.0774870  53.7751007  31.9967413  46.3338852  81.0691261
  31.8897295  47.2818136  81.1479282  31.7949414  46.1454391  80.1526165
  76.8956995  53.2666874  13.1333184  76.2073898  53.2294130  13.7974501
  76.4758253  53.6742830  12.3758245   7.1880114  57.0758247  65.9642696
   6.6017437  57.8324604  65.9690428   7.4897999  57.0009518  66.8695593
  48.7041140  11.6302288  70.4734516  48.6541414  11.9358516  71.3791704
  49.5964527  11.2960804  70.3823137  70.7218742  98.0181694   7.0758271
  71.6349077  98.2901001   6.9828051  70.4273701  98.4400177   7.8830069
  49.0989399  33.2663083  29.7885489  48.8393641  33.0891609  30.6926894
  50.0558233  33.2492185  29.8063517  54.5151997  17.1832991  65.5873919
  53.7556553  16.9156694  66.1047792  54.7437382  16.4059854  65.0777006
  13.4748983 104.4777012  59.5454645  13.5747588 103.5523129  59.7688866
  14.0513492 104.9353886  60.1573896  23.9991975  50.9089327  67.3911428
  24.6399069  51.2621307  66.7739105  23.1522107  51.0688639  66.9748926
  26.9932055  77.9402542   6.7647517  26.1553049  77.5356150   6.5402079
  26.7565584  78.7085581   7.2843075  18.4818685  22.9277945  60.5708408
  18.9140105  22.0756555  60.5129862  18.4967947  23.2652092  59.6752071
  18.3515382  35.6707239  91.1857700  19.0514159  35.0742197  91.4514446
  18.2545769  36.2706780  91.9252777  34.4351196  15.0784981  67.1692276
  34.3948269  14.3711996  66.5255356  34.2024994  14.6610856  67.9986143
  21.4037251  24.9838781  58.7350845  20.8829308  25.1203012  59.5265341
  21.7237234  25.8563256  58.5055923  53.2877636  18.8261712  69.1765594
  53.2914734  18.9634156  70.1238632  53.8490772  19.5206189  68.8317394
  23.6201072  84.8777199   2.8929523  23.6408067  85.0013256   1.9439927
  23.0785131  84.0989780   3.0212948  22.5400639  52.0587111  63.4247541
  22.5449681  52.8940058  62.9573250  22.5038934  51.3976145  62.7334690
  69.7340822  21.8283844  70.4493761  68.9832497  21.6966319  71.0282755
  70.4605484  21.3944864  70.8968306  33.4281993  49.6618271  54.4892025
  33.5092235  50.3185844  53.7975883  33.1236172  48.8747406  54.0375900
  75.5588245  79.3447304  41.1243057  75.8095407  80.2554321  41.2791967
  76.3349915  78.9462757  40.7305670  37.3851895  76.4811993  52.0169115
  36.6184568  77.0149040  52.2255039  37.6708603  76.1320782  52.8611517
  49.7369099  59.2502880  67.2296000  50.2246094  58.9348173  66.4687729
  50.2810001  59.0096807  67.9794693  48.3313847  93.1167030  -0.3068876
  47.7069759  92.8893089   0.3820517  49.1864109  93.0744934   0.1213452
  34.5086741  59.2070961  73.6209059  35.2199793  59.3365335  74.2482185
  34.1917801  60.0904465  73.4324932  33.9233303  53.1104183  81.6813374
  33.4706378  53.9430761  81.5472317  33.8948011  52.6817989  80.8259487
  30.7956934  37.0816278  59.7774410  29.8541975  36.9363809  59.8708105
  30.9197783  37.2559667  58.8444662  36.1013961   0.9328772  75.5761099
  35.9117579   0.1965041  74.9947119  35.3417540   0.9816394  76.1564541
  36.1794209  32.5583291  76.0790682  36.9195223  33.1652427  76.0673714
  36.3552070  31.9805264  76.8216801  91.9971657  69.5915937  15.7958984
  91.1507893  69.2436314  16.0766280  92.5531197  69.5244837  16.5721989
  96.4596176 101.9431686  31.2109089  95.9268093 102.7312374  31.1046076
  97.0368004 101.9394779  30.4473138  61.4377260  24.3740654  68.5000277
  61.0348034  23.5196376  68.3456230  62.1123695  24.2053819  69.1577721
  32.8898478  64.5339489  40.1580954  32.4514985  64.0116930  40.8299065
  33.2527518  63.8883114  39.5517230  25.6412053  14.0173709  85.8074570
  25.7983184  14.4416189  86.6509914  24.7960758  13.5804641  85.9128189
  42.6617908   0.0352709  40.1756477  41.9055796  -0.3586175  39.7406387
  42.6391077   0.9545176  39.9097466  67.2829580  91.3725281  10.4266298
  66.5392780  91.5949726  10.9867108  66.8869352  90.9929943   9.6421856
  13.5030735  23.2261539  21.3561893  12.6689243  23.2156014  20.8868098
  13.7144804  22.3021865  21.4896965 100.6315994  93.2883739  63.2983875
 100.1275349  94.0281582  62.9594612 101.5262032  93.6211014  63.3705664
  26.6526556  56.0869741  67.5784540  27.5686836  56.0022783  67.8429365
  26.2736344  55.2245569  67.7481842  27.3305631  64.2873478  91.5667439
  27.9563665  63.9283514  92.1958065  26.5352607  64.4359159  92.0782661
   4.3952009  25.9643149  71.7727089   3.5688025  25.4852867  71.7108297
   4.9903768  25.3590107  72.2149754  51.1838150  90.0897121  20.6265950
  51.2499666  89.6601582  21.4794397  51.6668034  90.9092331  20.7330799
  26.1682463  30.6219101  71.4867020  26.9528008  31.1640906  71.4045668
  25.7214618  30.7181644  70.6456614  39.3010473  13.7434375  65.9200144
  40.1272535  13.5944593  65.4602098  39.5415282  14.2759490  66.6781902
  41.3156796  44.5210886  67.3300934  41.9804478  45.0285292  67.7957344
  41.3642645  44.8344088  66.4269304  46.9320297  24.4684196  92.6427269
  47.7535629  24.9403191  92.5062370  46.2637663  25.0340891  92.2558498
  27.7453423  25.5888176  54.7962046  27.5726628  26.3634419  54.2610693
  28.5283113  25.8143973  55.2985048   8.8171208  18.5733020  80.8666801
   9.1113925  19.3959808  80.4757404   9.1095865  18.6224961  81.7767811
 108.2701206  14.2915225  72.2156143 108.9449978  14.3330729  72.8931475
 108.2455349  15.1747918  71.8475628  36.0572600  29.9877024  78.3036089
  36.4784670  29.3045020  77.7820206  35.5411053  29.5095682  78.9526081
  74.5617533  69.3446350  10.0775850  75.4766989  69.1246700  10.2528667
  74.5912361  70.2392197   9.7383493  94.0653706 107.0781231  61.1765862
  94.0331364 107.9006672  60.6881046  94.3596172 106.4305401  60.5360508
  16.6599345  73.1706333  69.8401642  17.5777924  73.0065823  69.6236992
  16.6579878  73.3071327  70.7875776  30.1986384  26.7492056  73.1349850
  30.3904414  26.1189270  73.8293886  31.0231352  26.8369293  72.6567173
  27.9023480 104.0078259  68.0882215  27.5555730 104.8517132  68.3777761
  28.6553359 104.2330456  67.5418520  48.2840157  29.4378471  81.3112354
  48.9140081  30.0666118  80.9591103  47.6398849  29.9761844  81.7711544
  37.6771998  41.3720226  69.8249483  37.8055072  40.8006811  70.5821371
  37.4566841  42.2236776  70.2021551  48.2329512  42.8581429  88.0683899
  47.3989534  42.4733353  88.3378506  48.2434797  42.7641201  87.1158791
  18.4755182  56.5607071  43.8682556  18.7092197  57.4356747  43.5583496
  17.6006246  56.6648674  44.2423487  25.5844092  29.0399885  67.7351046
  25.8723259  28.1278181  67.6992893  26.3915753  29.5416045  67.8495407
  40.7272720  46.2895107  81.5005684  41.5305710  46.8096304  81.5208721
  40.7103968  45.8417606  82.3464203  39.5212889  75.9803438   9.7268379
  39.8679042  75.8813667  10.6135690  38.6466312  75.5935717   9.7670144
  40.9811687  49.2949963  74.2075682  41.7401361  49.7380972  74.5868635
  40.4654551  49.9984312  73.8132954  99.4821358  71.6848707   1.6498712
 100.0558281  72.1216583   1.0203247 100.0779819  71.3219595   2.3052274
  50.7255316  78.4031343  58.8966513  50.8964157  78.2941437  57.9611540
  50.6153202  77.5109863  59.2255259  37.3906326  29.8270297  70.7753181
  37.2422862  30.7178378  71.0926247  36.6744041  29.3160820  71.1523867
  59.0361977  25.7612586  69.0012884  59.5369482  26.5769744  68.9920425
  59.6927023  25.0757837  68.8773727  52.0345640  30.3974748  73.4939194
  51.4683580  30.5279851  74.2545843  52.8892231  30.7266259  73.7722206
  74.2573118  66.4873886  15.7170379  74.6403599  65.6252480  15.5551314
  75.0071478  67.0502567  15.9098053  37.6067400  49.2237711  84.6789074
  38.1826711  49.0465117  83.9351845  37.5267577  50.1774311  84.6979332
  25.3845453  48.3230209  43.1515312  25.4176331  49.0167904  42.4928808
  25.0685525  47.5553131  42.6750851  41.5695143  42.8818369  58.3680058
  41.7379522  42.9037237  59.3100119  42.3440170  43.2859373  57.9767513
  30.4610014  55.8474016  74.6270180  30.8192086  55.4568768  75.4241419
  31.1301804  56.4705610  74.3439913  35.0194192  28.0557132  57.6443958
  34.6819615  28.5660148  56.9082260  35.7735348  27.5878024  57.2857857
  31.8790889  27.8376961  68.2799053  31.6808271  26.9100046  68.4076214
  32.7888846  27.8494668  67.9826450  76.8208647  74.1881990   3.2276887
  76.0536718  74.3169069   3.7854367  76.8035364  74.9290657   2.6218444
  37.8664422  58.0750990  86.4395714  37.0632529  58.2120895  85.9372234
  38.0281353  57.1334982  86.3806534  63.5051870  84.6992111   7.3436403
  64.4436598  84.8645210   7.4340826  63.2539034  85.1727676   6.5506476
  44.9361658  51.3508558  83.8135719  44.5589781  51.6754055  82.9958725
  44.2881346  51.5744686  84.4816208 104.8057556 106.8611526  79.7913027
 104.7763634 106.3025093  80.5680180 105.7232571 106.8446827  79.5190096
  46.9122982  33.2972264  81.9369030  46.4593172  34.0676999  82.2795582
  47.1543598  33.5395074  81.0430717  49.3487930  31.8210578  51.8820906
  48.6784554  31.4155459  51.3321447  50.1549339  31.7463875  51.3714123
  20.1406264  10.4136062  51.2031364  19.3436730  10.8718252  51.4698410
  20.8533573  10.9675360  51.5215826  60.0951958 107.4051189   3.4916297
  60.2134991 107.2448254   2.5553909  59.2399693 107.0255184   3.6934280
  98.2438183  64.2100382  24.4258595  97.7509689  64.5160818  25.1872206
  97.6368237  63.6313534  23.9644313  43.5053396  23.2596779  73.1831789
  43.6775446  23.6574483  72.3297405  44.2730427  23.4815073  73.7101030
  49.3398190  34.6204877  46.4044619  50.2261972  34.8562884  46.6782570
  49.2466259  33.7025714  46.6593647   6.4777058  50.5918169  36.0610533
   7.2928369  50.5364180  35.5623317   6.6131383  51.3256025  36.6605926
  27.6684856  24.7329259  72.2844839  27.7256894  25.5367565  71.7679453
  28.0823255  24.0661073  71.7364693 101.1521435 100.0467968  84.0208340
 101.3329983 100.3220844  83.1220913 101.0456657  99.0972614  83.9636612
  69.5214319  45.1725101  84.5858479  69.8978329  44.6958065  83.8460445
  69.5153332  46.0870504  84.3033504  44.1085577  45.0621796  72.0923710
  43.6875820  44.6640778  72.8542948  44.2575884  45.9721422  72.3492670
  40.6309891  39.7092843  66.3652563  40.5222130  39.4879341  65.4403782
  40.2961731  40.6030130  66.4386225  15.3507054  40.0028610  36.6723275
  16.1814606  39.5971560  36.4243770  15.2685559  40.7567215  36.0882163
  43.1231070  25.9071970  47.0481777  44.0081787  25.7921982  47.3940897
  42.8592062  25.0304246  46.7691469  50.8231783  12.2409594  86.8517780
  50.1854181  11.5668917  86.6169834  50.4476118  12.6682711  87.6215744
  13.4486115 101.3268089  70.7423067  12.5087118 101.2589645  70.5743313
  13.5432184 101.1030483  71.6681623  48.8233852  35.4701781  69.5184231
  48.2390547  34.7760248  69.8232794  48.9569998  35.2801633  68.5898399
  24.5823240  24.3408465  67.7889585  24.9973011  25.1961398  67.6771641
  24.0872383  24.4195914  68.6043835 108.0361366 105.9850311  72.4493408
 108.1118298 105.4977417  71.6289473 108.6319542 105.5370998  73.0498314
 111.3423729  37.8600192  57.4996471 111.3681221  38.6139750  58.0888176
 110.6120872  38.0428410  56.9084692  30.2680683  54.9223757  89.3428040
  30.4039192  55.6399679  88.7240601  30.2195215  54.1392946  88.7944794
  36.0564804  47.4204493  80.6675911  36.7354417  46.7492533  80.7364464
  35.7350135  47.5286531  81.5626812  30.8199000  46.6202641  75.3876305
  30.2021408  46.8953800  76.0650635  30.4067707  46.8838882  74.5654011
  17.6114154  52.6989985  92.3262978  17.2617447  53.5568762  92.0854568
  16.8652821  52.1048975  92.2453022  10.4261482  19.3544292  71.9028854
   9.6895242  18.7644160  71.7431879  10.5441678  19.8197877  71.0747862
  60.6372786  30.4116344  83.7169838  59.9226379  30.9380889  84.0752697
  61.0829210  30.9975100  83.1051159  81.6882420  71.9431114  10.0786555
  82.0732975  72.7122021   9.6585703  81.7504692  72.1259451  11.0161686
  33.9219975  66.6525555  70.9144402  34.0440726  66.2278986  70.0653219
  34.5899415  67.3377895  70.9377718  38.1444812  22.1781492  76.8072319
  37.6643300  22.9865313  76.9866943  38.4095192  22.2554398  75.8907127
  82.7092266  89.1605282   3.3850670  81.9908047  89.7682667   3.2097116
  82.3651218  88.3037090   3.1326762  26.0217142  46.7097378  76.3443899
  25.8537865  45.9805870  76.9413614  25.7973933  46.3673973  75.4791069
  29.7136497  37.3380208  26.0786724  30.5474496  37.2600079  26.5422678
  29.7270393  38.2206845  25.7085967  33.5253024  59.2270327  63.3321285
  33.3543277  58.7676954  64.1543293  33.6749554  58.5290289  62.6944590
  19.4549298  33.2858634  58.6036491  19.1607499  33.0489659  59.4831753
  19.8017943  34.1730070  58.6979532  16.4459682   9.2672569  64.5452070
  16.6840303   9.1298467  63.6283255  17.2839594   9.3242681  65.0042868
  32.7246833  39.0633464  60.4268408  33.3930326  39.0548515  59.7416639
  32.0613074  38.4442663  60.1220369  32.1995616  24.5223165  71.2688065
  31.8939829  24.2618465  72.1377182  31.9229722  23.8088036  70.6937981
  63.7816811  66.4664030  90.6581593  64.1008425  67.2397089  91.1233139
  63.3750916  66.8149567  89.8647976  22.7046251  35.7687926  66.6994667
  23.4702706  35.7277989  66.1264563  22.0844793  36.3275051  66.2309694
  15.5919540 102.3614597  53.5353947  14.9236453 102.1131516  52.8966951
  16.1141455 103.0278969  53.0888510  84.4184113  86.5782452   7.2673291
  84.6167183  87.3540115   6.7428362  83.7617588  86.8761826   7.8968298
  26.7568541  65.2533722  77.3139286  26.7172527  66.1479902  77.6520348
  26.8427920  64.7059345  78.0944157  46.5564489  40.1074839  66.2574196
  46.6138506  39.2852879  66.7441750  47.4118614  40.1973772  65.8373976
  56.5161228  11.2470841  73.1818104  56.8577290  12.0175946  72.7280998
  56.9755030  11.2403476  74.0215445  67.4763632   4.0046623  68.1840086
  66.9473982   4.7782478  67.9890776  68.0498600   3.9088503  67.4236441
  28.4747791  32.4011636  48.5776281  27.5890017  32.6170421  48.2860374
  29.0323544  32.6175284  47.8302765 104.1489983  28.0663085  52.5894117
 103.4456062  28.5875654  52.9763937 104.6353531  28.6862564  52.0459366
 103.1481171  59.1613865   1.2312062 103.1266975  58.7331963   2.0870268
 102.9932785  58.4538078   0.6054312  14.1087735  31.6250801  47.8510809
  13.5467410  31.0779142  48.3996773  13.5375130  31.9197178  47.1417952
   0.9796494  57.8369045  77.5974989   1.5684982  57.2178078  78.0290174
   1.5433469  58.5688972  77.3471737  69.9919605  13.0509365  50.4364872
  69.8233128  12.7182114  51.3180113  70.3369427  13.9329469  50.5753183
  50.2705812  52.6001930  80.3814888  50.2262259  52.8873539  81.2935162
  50.1235723  51.6551542  80.4205132  65.2559233   6.3222349  54.8266268
  65.9760380   6.0714161  55.4052114  64.7585964   5.5143696  54.6991539
  93.7691975  60.7226372  16.4463782  94.4904613  60.0973511  16.5172780
  93.5913563  60.7776880  15.5074561  68.6009550  21.5215802  39.4665885
  68.7072802  21.3146448  40.3950834  68.4481668  20.6742620  39.0483284
 102.3487759  42.5063562   1.7060703 103.1978607  42.0970726   1.8727401
 101.9739151  41.9964123   0.9879686  55.6035805  36.3917661  66.6865826
  55.3470469  37.2768164  66.9456387  55.1539230  36.2460279  65.8542347
  52.3282099  20.7039094  53.0512476  52.6689816  19.9099910  52.6391792
  51.5143776  20.8870196  52.5817966  66.8396330  61.1198759  23.1175971
  67.4767065  60.6497288  22.5797033  66.1782932  61.4230490  22.4955440
  52.7188492  53.3333254  65.7137680  52.3079062  52.5495911  66.0786152
  53.3192635  53.0004978  65.0467110  10.1410222 101.9398499  65.9160137
   9.5013666 102.3540211  66.4952707  10.4506791 102.6502895  65.3542089
  15.7483995  21.0097146  81.1344719  15.3149402  21.1680889  80.2958679
  16.3765788  20.3111148  80.9512329  42.6462460  21.9153476  66.5192413
  43.4978580  22.1624207  66.1587715  42.4178505  21.1064601  66.0612392
  71.0652113  73.0196428   4.1876486  70.2307177  73.2059526   4.6179342
  71.3977003  72.2422075   4.6362880  34.8496628  39.1713262  45.6109095
  35.5425644  39.2529988  46.2662315  34.1198587  39.6761131  45.9698105
  37.2770262  22.3909044  38.9712811  37.3933578  22.7339172  39.8573065
  36.6831398  23.0122185  38.5499716  37.0781279  55.4277658  82.2167873
  36.7771220  56.1197567  81.6279125  36.2972808  54.9005175  82.3856735
  85.5766392  17.0007610  75.1523018  85.8947277  16.6204572  74.3335056
  84.7875309  17.4815154  74.9024534  26.2719393  45.2015257  82.3369503
  26.7837811  44.4128132  82.5163364  25.5398846  45.1570272  82.9520512
  51.7818356  36.1899281  68.3176279  52.3038578  36.5429926  67.5971603
  51.1178732  35.6492352  67.8897953  27.6078701  50.5931520  87.2118092
  27.4786806  50.0501394  87.9894257  27.9188013  49.9832869  86.5427685
  83.5092831  97.6795578  59.8155928  82.7488518  97.2441006  60.2007532
  84.1401196  97.7390003  60.5330467  37.9556155  49.5562077  56.2848949
  37.0051289  49.5122480  56.1806107  38.0869603  50.1157093  57.0503569
 107.3980999  79.9877024  19.6234596 107.1575928  80.5462265  18.8842475
 108.3162212  80.1980782  19.7938335  86.0884857  30.8460760  64.6719408
  85.3399372  31.3526440  64.3568134  85.8999348  29.9471831  64.4023657
  43.5366631  46.3624763  58.5763264  44.0118361  47.0906019  58.1759787
  43.3016777  45.7966185  57.8409195   2.7168438  11.1110926   6.0184258
   3.1445628  10.4171586   6.5201664   3.2226568  11.1670637   5.2077150
  34.4263530   6.2510514  70.8511114  35.2088547   5.7549036  70.6107807
  34.5251727   7.0884383  70.3980637  41.1155653  48.7272978  62.3033667
  40.5046749  49.1339922  61.6888380  40.6553936  48.7404585  63.1425905
  12.6494181  39.8254418  74.0750408  12.1902740  39.0844607  73.6796093
  12.2860944  40.5943871  73.6357832  43.7621880  15.8608782  38.1082606
  44.2091799  16.5096319  38.6519051  44.1937447  15.9241509  37.2562122
  49.1886091  38.1589127  83.6345673  49.0760374  38.6839414  82.8421593
  48.4141302  38.3530140  84.1625214  37.0934486  42.4731159  73.7000799
  37.1180511  42.7048588  72.7716827  36.7172670  41.5931034  73.7173891
  38.4042811  42.6782370  52.8303909  39.0663648  43.2777691  53.1745386
  38.8856864  41.8728352  52.6411629  29.8740888  25.2844524  57.9681683
  29.9835372  25.4125333  58.9104271  30.0606346  26.1422586  57.5865889
  15.0485551  37.2621989  92.5039482  15.0386620  37.5875950  93.4040833
  14.1285157  37.0948052  92.2996521  45.7001591  35.9817576  48.9348793
  45.5409575  35.6550360  49.8203945  46.3934851  36.6331220  49.0409565
  77.1346188  21.5390801  65.1252127  77.1347475  22.4739742  64.9197674
  76.2267065  21.3452053  65.3583193   6.7426068  28.3114886  82.0991421
   7.2761661  27.9560947  82.8099442   5.8397269  28.1784773  82.3878384
  49.4394827  62.4060106  64.5555162  48.7333012  62.1405172  63.9663982
  50.2300024  62.0335102  64.1649389  81.0737419  94.7676373  18.2187760
  80.3683949  94.7723579  17.5717115  81.2658024  93.8401318  18.3569515
  28.8310719  38.4313846  65.6646585  28.6988115  37.9972291  66.5074205
  29.3341756  37.8023481  65.1475239  34.1034341  56.4273930   8.1669909
  33.3000112  56.5383196   7.6586235  34.4719982  57.3086977   8.2277840
  69.5604563  16.0836411  39.4217205  69.8385286  16.6509771  38.7026668
  69.9933767  15.2477109  39.2484236  20.6828785  12.3752701  82.7764606
  20.2212238  12.2576404  81.9462299  21.3317490  13.0552959  82.5954437
  45.6434345  48.0573082  90.1807499  46.0025120  48.5164356  89.4214821
  46.2428379  48.2714510  90.8956623  57.2512007  44.0519810  60.9718847
  56.8718672  43.7818861  60.1355886  58.1205845  43.6515856  60.9809971
  44.2438889  39.3248487  17.0081675  44.7382307  40.1433086  16.9635987
  44.0441656  39.1156793  16.0957026  50.8162165  15.5415738  72.1065664
  50.8130836  14.8948729  72.8122568  50.7273865  15.0235462  71.3065720
  40.7025385   3.0829257  66.3010406  39.7961545   3.0883360  66.6087246
  40.9885073   2.1764877  66.4142799 101.1745739  46.3341236  59.0567875
 101.3873005  47.2639322  58.9765835 100.8023357  46.0993910  58.2067442
  46.8511438  44.9463797  68.5631466  46.5962267  45.6206560  67.9333878
  46.0234642  44.5574045  68.8457584  58.1121826  40.1594067  35.6425333
  57.3329163  40.5449486  35.2421188  57.8411770  39.2758536  35.8917737
  27.8795242  18.0661345  74.9792767  28.6403131  17.5485206  74.7156334
  28.0981851  18.3843124  75.8551645   1.2638734   9.2459238  18.1752312
   1.3924028   9.6923429  19.0121436   0.7431307   8.4730101  18.3935499
 105.0838089  85.0471115  71.0475159 104.8813343  84.9600220  70.1160336
 104.2495346  85.2835655  71.4528751  73.7024689 106.2642479  14.9292409
  74.6361685 106.0943127  14.8044777  73.6631107 106.8320942  15.6988060
  34.6958518  56.7388916  50.6465054  35.2146888  56.3246727  51.3360453
  33.9821649  57.1743488  51.1126137  90.5445957  89.9360085  75.7959843
  91.3843060  89.5131493  75.6162310  90.5484962  90.7196045  75.2462626
 109.5205688  89.6071243  29.5231414 108.8846493  89.7626591  28.8248253
 109.4153786  90.3532696  30.1134300  56.4043474  44.2956638  67.5961256
  57.1069288  44.3787146  68.2408810  56.8127775  44.5361567  66.7645121
  13.6166501 105.9732151  78.1477022  13.0707777 106.6486359  78.5502815
  14.1698837 105.6555557  78.8613224  54.1644812  51.6982460  63.2650328
  53.4424257  51.6413832  62.6392269  54.8293161  51.1032391  62.9183531
  45.8677149  47.6628113  67.8396893  45.2412415  48.1953144  67.3495817
  46.4544010  48.2989788  68.2487392  40.8353901  57.1560144  90.4555798
  40.0502014  56.6163445  90.5475998  41.3444376  56.7233181  89.7701073
  57.4882174  44.9746990  72.7776814  58.0057764  45.4734516  73.4098291
  57.2009087  45.6252337  72.1369791  37.8779364  43.5779476  66.6013193
  38.5963988  43.2826805  66.0419798  37.4918079  42.7707672  66.9413185
   9.5316041  10.1258528   1.1880638   9.4472671   9.7358376   0.3180020
  10.4402387   9.9586999   1.4384153  52.6689816  21.4468670  81.0841179
  51.9125748  21.7565632  80.5859470  53.0800390  22.2449303  81.4163113
  49.7118950   2.5618041  91.5859509  49.2749453   1.7948084  91.9561100
  50.5464125   2.2269323  91.2578201  55.9366417  18.8075185  77.4158430
  56.7892075  18.5692394  77.0517254  55.3023338  18.3844876  76.8371105
  59.3522167  50.7827663  66.9552088  60.2081585  51.0338402  66.6079950
  58.9732933  50.2235556  66.2770224  57.3444366  52.9722595  66.8354654
  57.1806765  53.5846233  67.5527000  57.6416540  52.1714354  67.2674084
 102.3035812  98.5969734  24.2301011 102.5284576  99.0837574  25.0230050
 103.1429863  98.4460545  23.7955379  49.6610022  66.6441441  69.0204716
  49.6249056  66.9675207  68.1202745  49.4845438  65.7063532  68.9453459
  27.5369859  23.0176473  86.6651726  27.7539849  22.0997167  86.5022469
  28.0935717  23.5065675  86.0590363  32.1753383  44.7264194  83.2328510
  32.1555257  45.3577709  82.5136566  32.0853019  43.8743544  82.8061104
  57.7366114  50.0895929  64.3358660  57.2872639  49.4978046  64.9392796
  57.2109222  50.0610352  63.5364485  57.0687675  43.5259485  58.3597803
  57.9190826  43.1526613  58.5918474  56.5639687  42.7836561  58.0274963
  56.4915276  54.2900515  69.1145802  56.1276007  53.9703369  69.9401522
  56.4889812  55.2429867  69.2047977  52.8918028  24.5640159  52.9436731
  53.8379002  24.6011472  53.0842018  52.6911354  23.6286783  52.9103613
  50.9516811  87.5044632  51.0100985  51.8652010  87.6468468  50.7622147
  50.9961271  86.9025707  51.7530537  29.0353060  24.9466872  91.5292168
  28.3859706  25.4331040  92.0371437  28.6865997  24.9406910  90.6378078
  12.4816048  40.0045109  60.2278900  13.2194591  39.4359541  60.0075579
  11.8963635  39.4487906  60.7425690  19.2085218  35.4428983  86.9832134
  18.7055266  35.9219503  86.3246250  18.5546470  34.9284196  87.4564838
  25.1106906  70.7859993  65.5814457  24.2786598  70.6952095  65.1169920
  25.7328773  70.2793550  65.0594950  40.2733755  73.7901831  67.8543234
  39.9090624  74.0442944  67.0064211  39.5548773  73.9219093  68.4729004
  58.7470055  53.6125612  72.5048018  58.5106850  54.4563723  72.8899860
  58.0502701  53.4340620  71.8731880 109.3153477 101.0857773   2.4399756
 109.7318268 100.9193039   1.5943633 108.3974075 100.8501720   2.3053744
  48.3544064  35.8225751  84.6525002  48.1905508  35.0660014  84.0894890
  48.6491776  36.5079808  84.0528679  54.4162750  33.2995582  80.5603123
  53.5833263  33.0679584  80.9711647  54.2963696  33.0811954  79.6361017
  41.5096712  68.1215334  71.4633512  40.8854580  68.2442617  72.1785593
  41.5873575  68.9870834  71.0620785  33.4818530  31.8808627  77.1025753
  33.0784249  31.0682535  76.7973804  34.3603468  31.8695474  76.7226458
  39.8519373  42.0838833  68.0867672  39.0530801  42.0330572  68.6116266
  39.7640991  42.9006004  67.5953531  54.8624325  23.6066008  50.8483839
  54.8451519  23.0520558  51.6283941  55.1636696  24.4577456  51.1662531
  24.7849965   2.6906875  18.6507916  25.3007221   2.4852400  17.8710163
  24.5060611   1.8381745  18.9849317  11.8148148  55.6131363  60.0605059
  12.0966864  54.6983814  60.0602245  10.8667111  55.5715752  60.1854324
  41.1525965  19.4876683  79.3541145  40.5297518  18.7809145  79.1844177
  41.0685682  20.0678015  78.5973978  40.8637905  19.3312478  71.4463949
  39.9357343  19.5029068  71.2867689  41.2147903  20.1704359  71.7443752
  25.5627823  78.3500004  59.6687984  25.4869890  78.5562086  60.6004429
  24.9882531  78.9816475  59.2361641  50.3942060  81.9876957  90.8102989
  50.0849152  81.0861206  90.7224083  50.2862930  82.1883869  91.7399788
  35.1743126  80.5859375  91.4158726  35.7403231  81.3577080  91.4312553
  35.5622411  80.0176334  90.7504559  49.5455647  85.8600330  39.0736866
  49.1267967  85.0336647  39.3144846  49.9523926  86.1673546  39.8837900
  85.7270336  63.2195997  88.7292576  86.4765739  62.8699350  89.2110825
  84.9642086  62.9284191  89.2287922 101.0576248  60.0862789  51.1894560
 100.8828354  59.2012882  50.8693361 101.9902229  60.2218008  51.0217476
  59.5485973  57.3334217  65.1417828  58.7578297  57.7507257  64.8000574
  60.1672840  58.0540133  65.2609682  51.2738752  76.8922806  70.1371193
  50.7411003  77.5798178  70.5367184  50.6590509  76.1768818  69.9745560
  97.2087288  76.5626478  28.8701129  96.3625717  76.9590282  29.0777874
  97.5290775  76.2290287  29.7081542  57.6128054  65.0495863  69.7667694
  57.9041529  65.8134794  69.2689562  57.0097208  64.5958138  69.1780329
  57.4903011  58.6667347  61.1176586  56.8142033  59.3318844  60.9884119
  57.6724672  58.3362913  60.2379656  68.8254595  76.0301733  52.1382523
  68.9617825  75.8780813  51.2030983  69.7076130  76.1328602  52.4953079
  64.6060896  89.7391033  74.5231009  64.4669485  88.8116455  74.3315315
  64.3501663  89.8352146  75.4404306  85.4358578  88.7300205  52.3833561
  85.8272934  88.7330627  51.5098572  85.3646660  89.6555042  52.6171350
  52.2280741  31.6097188   9.6054500  53.0993271  31.9822764   9.4699788
  52.2944689  30.7164049   9.2680907  90.0674629  61.8140745  78.1869364
  90.6457806  61.6301203  77.4467087  90.6222725  62.2763205  78.8152313
  71.5985012  93.3605576  63.3470678  70.7201147  93.6087990  63.0588865
  71.9780970  92.9066944  62.5946379  19.7315323  72.8810549  30.8165193
  19.7588921  71.9721985  31.1156273  20.1170087  73.3815765  31.5356278
  49.0244007  72.3680782  87.6368713  49.9208212  72.0329571  87.6181126
  48.5529375  71.7592525  88.2054615  54.6876144  96.5801811  55.0193167
  55.0513315  95.8224297  54.5613194  53.9769363  96.2206841  55.5502844
  88.7989426  81.1687374  92.9735661  88.4675694  81.2263203  92.0773983
  88.1772327  81.6794682  93.4920883  72.3312902  83.7337303  87.6030731
  71.6419268  83.6207676  86.9486713  72.0680761  83.1673717  88.3284569
  37.5847626  72.0154524  69.1436481  38.2142782  71.7335558  68.4799623
  37.6060724  71.3224888  69.8036337  67.2154713  75.9147310  91.3841248
  67.4282837  75.0880480  91.8171787  66.7594385  75.6552744  90.5835342
  65.4056025  87.7205849  49.1032696  65.9668207  88.4729862  48.9157438
  66.0149527  86.9944000  49.2358637  51.3730335  62.3752832   3.6414358
  51.8212748  62.1501398   4.4566801  51.6058064  61.6700935   3.0374849
  48.0826759  70.0987387  88.7960243  47.2457123  70.5182981  88.5967731
  47.8447676  69.2249441  89.1060448  55.5681705  83.6113548  83.5816765
  55.9836864  84.1138458  84.2824459  54.6767378  83.4565258  83.8941097
  56.6493511  73.4731054  74.8450089  57.5832033  73.3329391  75.0015593
  56.5948963  73.7126207  73.9198637  23.8390350  45.5170345  22.3846245
  23.8298821  44.5668888  22.2689676  24.7599554  45.7608128  22.2912931
  77.9334211  80.0691700  58.6289072  78.8255119  80.2084732  58.3110905
  77.8597021  80.6401539  59.3936110  86.1372089  78.7459517  71.7867947
  85.5992413  78.5009861  71.0339212  85.7896614  79.5937204  72.0638037
  76.0747623  60.4987431  59.4988298  76.7887926  61.0898304  59.2600679
  75.5617571  60.9898281  60.1406193  55.3010511  65.0416183  85.2043438
  55.8011341  64.2515230  85.4090595  54.3902969  64.7483206  85.1772690
  57.9401016  73.4574747  62.4550295  58.8745928  73.4092426  62.2534704
  57.8883505  73.2818317  63.3945513  50.4944086  81.8674469  68.7211466
  50.4033852  82.3556328  69.5394468  51.1847591  82.3272705  68.2434368
  50.0474215  74.1049719  62.2602129  50.0728178  74.3921280  63.1729698
  50.7386398  73.4458208  62.1971750  69.6722031  62.5234556  87.5957680
  69.0544319  62.8326702  88.2583237  70.0995350  63.3185005  87.2771454
  45.0245714 100.8229828  83.2550621  44.9034739  99.9530888  83.6356544
  45.4285240 100.6575871  82.4031830  37.0990562   2.4618484  15.8664155
  37.0517325   2.0473352  15.0049222  38.0131698   2.3598260  16.1314094
  93.4736347  81.4821434  62.7540827  93.5446358  81.3861942  61.8043518
  94.3234062  81.1947441  63.0880404  81.0982800  -0.1211330  40.9132624
  80.6072807  -0.4552355  41.6639471  81.5793610   0.6314120  41.2574530
  78.9122248   6.1748719  14.5226026  79.0509510   6.9632000  15.0475073
  79.6561956   5.6114388  14.7354054  80.8072281  86.9908333  64.4260645
  80.2982140  87.7856159  64.2665148  81.7183781  87.2840309  64.4166565
  79.5711613  95.1745987  47.1285486  79.3384695  96.0629463  47.3986101
  80.0526524  94.8159981  47.8740692  54.2191076  68.8117981  58.3316660
  54.6663952  68.2229233  58.9394379  54.8005676  68.8595772  57.5728130
  22.1065021  86.9688416  49.3433666  22.7973127  87.5346470  49.6881437
  21.9954705  86.2922192  50.0112677  48.1363678  88.1194687  78.6985159
  47.5621462  88.5572147  79.3269110  48.9853811  88.0777168  79.1385841
  87.6550007  85.3223133  78.9185429  87.1752357  84.9982929  79.6808195
  88.2383633  85.9945488  79.2707014  90.1304054  53.8169670  68.0076885
  90.3192520  52.9082298  67.7736712  89.3345547  53.7674952  68.5372257
  57.2312260  97.9836273  67.0069647  57.8341436  97.2650814  66.8161488
  56.6922235  97.6588821  67.7282429  49.7098827 100.6732750  52.6444674
  48.9844465 100.3239536  53.1621027  50.4763985 100.5746460  53.2092333
  81.8046856  69.1867447  60.5346394  80.9583282  69.6000433  60.7052422
  82.4237537  69.9157715  60.4958868  67.3156834  92.6414299  68.5122490
  66.9786644  91.7460632  68.5434246  66.5336323  93.1896019  68.4479475
 108.1074047  43.4575939  10.2361441 107.6251411  44.1815472  10.6355679
 107.5220776  43.1269264   9.5547634  19.6987045   0.4419480  42.9948759
  19.8418760   1.2779644  42.5512409  19.6112931   0.6733707  43.9195585
   5.9617215  64.2324543  25.6474042   6.4419687  64.1800976  26.4737535
   5.8248883  63.3202505  25.3916931  51.6432762  86.1263561  70.9594297
  52.1060133  86.4349556  71.7384529  51.2796116  86.9199657  70.5667830
  57.9472542  72.8648424  23.4085107  57.4961710  72.1380997  22.9788613
  57.3070526  73.2096767  24.0309715  30.4056764  76.4106798  64.9848080
  29.5803833  76.2149477  64.5411730  30.7601309  77.1626997  64.5104027
  77.8810692  75.3067684  50.7350254  78.8105249  75.4463196  50.9163284
  77.4971294  76.1831045  50.7642651  60.6068325  80.8370209  64.7574043
  60.1795721  79.9964809  64.5925665  61.2903261  80.8932972  64.0896463
  37.5932288  51.2501431  16.0931706  36.6397071  51.1854553  16.0398257
  37.7602768  51.6153860  16.9620347  82.2641754 106.3233376  59.1176176
  82.2097397 107.1272373  59.6343470  81.4804459 106.3381863  58.5682774
   3.1867641  83.7668800  48.5884762   3.4525096  84.5020390  48.0360699
   2.4011637  83.4208202  48.1650305 100.7472706  74.1468906  40.8058977
 100.6461430  73.2150412  40.9999704  99.9571800  74.5529222  41.1624479
  58.9042997  33.5487294  17.7734637  58.3682585  34.3268108  17.9266942
  58.5341167  32.8845477  18.3548892  65.1625633  82.1196365  56.4284992
  64.2823839  81.9182301  56.7462397  65.6667280  82.3046589  57.2208452
 109.8960304  28.2466078  90.2153683 108.9967537  28.0647349  89.9424839
 110.4322720  27.6661968  89.6751785  66.4511442  91.6329670  52.5511980
  67.1029282  91.7677307  51.8632650  66.4468670  90.6866455  52.6950264
  18.4823740  28.9902854  21.2895823  18.2187986  28.6661410  20.4283690
  19.1441727  28.3664441  21.5880442  62.8916979 103.3555984  61.4366961
  63.1046343 104.2250824  61.0977411  62.1267414 103.4967136  61.9945145
  59.8196268  77.6613331  74.7114468  60.6606150  77.2413158  74.5309925
  59.1737032  77.0955992  74.2884111  51.4100981  34.0363669  14.2479110
  51.2205696  34.1649365  15.1773095  50.7806158  34.5976615  13.7952185
  72.7030134  79.9611998  59.4007015  72.0080853  80.5908203  59.5927525
  73.4582329  80.5014896  59.1684055  47.5034761  80.2690697  46.5616894
  46.7174101  79.8635912  46.9276428  47.1738720  80.9934711  46.0298681
  50.7425880  63.3364868  87.6343155  51.3545418  62.7422571  88.0686474
  51.2962341  64.0295219  87.2745895  27.9372740  45.2196646   5.6376958
  28.1702995  46.1246777   5.4306144  27.5809407  45.2611494   6.5251291
  60.8895779  82.1551228  69.1845989  61.4092636  81.5307522  68.6783218
  59.9928331  81.8261147  69.1226959  83.2109642  74.0764856  58.5519171
  82.3731232  74.3224955  58.9440203  83.7346172  74.8771095  58.5838175
  45.9652567  56.3684368  64.0808916  46.6687965  56.9146156  64.4315338
  45.6806183  56.8239641  63.2886076 101.0746670 101.1713314  19.4132960
 101.2422657 102.0429516  19.0549338 101.9167137 100.8951664  19.7751415
  49.2190838  92.1133518  38.9710021  48.9581633  92.8322124  39.5466733
  48.4203482  91.5993023  38.8526440  53.1334019  75.4137421  52.1388483
  53.9720154  75.6852818  51.7657137  52.9285669  74.5911646  51.6942883
  74.1231823  68.9559269  86.3579178  74.5463562  69.8144579  86.3668728
  74.2913818  68.5968924  87.2291374  36.7457581  80.5666351  54.4368362
  37.5905800  80.9317780  54.6998596  36.1375022  81.3033390  54.4961739
  33.4026957   9.2875117   2.7938595  33.0480099  10.1744056   2.7318078
  32.6311636   8.7210262   2.8019041  41.2475491  62.8212452  91.4808750
  40.7197046  62.9148722  92.2738743  41.5155315  61.9023275  91.4786339
  85.9234524  91.0955715  77.3070288  86.6842842  90.7637024  76.8303394
  86.0016727  90.7114124  78.1802607  11.6786397  35.1870108   2.1103577
  10.7747912  35.2596855   1.8037514  12.1921337  35.0558400   1.3132688
  75.2223873  99.0242958  80.6323624  74.4107628  99.5229912  80.5385780
  75.4155827  98.7127113  79.7481585  26.4863396   1.1283816  80.1271629
  27.3978281   0.8362589  80.1180553  26.0042882   0.3970510  80.5131912
  40.6114197  21.6456151  14.2589164  40.7648611  21.9172096  15.1638603
  39.8244452  21.1024356  14.3020356  58.5115814  83.5524559  76.4791393
  59.3788481  83.3725739  76.1162043  58.0289888  83.9559269  75.7576466
   7.0099002  97.3634434  88.7125587   7.7502543  97.4135780  89.3171978
   6.9153559  96.4292526  88.5266018  82.9201221  74.8893833  51.0232162
  83.6892223  75.0799513  51.5602541  83.2773590  74.5185518  50.2163124
  58.7015009  95.4796028  78.6376381  59.2044449  94.8716545  78.0957127
  58.6399031  95.0467205  79.4891357  98.1693459  66.9436264  77.8942299
  98.3654022  66.8905783  76.9588232  97.8816605  66.0614014  78.1290579
  86.5076160  58.7674284  44.9848843  85.6813240  58.3727169  44.7061825
  86.2625408  59.6359301  45.3040695  55.1924515  90.5809689  33.8199139
  54.9102926  90.6505585  32.9078960  55.1447439  91.4765549  34.1543913
  41.9393015  61.1716986  60.0546837  42.0598125  61.5529394  59.1849899
  42.3425007  60.3056479  59.9945164 103.7469387  15.4161119  80.6777382
 104.1812897  16.2442768  80.4734802 103.8718796  14.8805320  79.8942995
   0.0512361  63.6887980  38.9770412   0.9322023  63.9052582  39.2824435
  -0.4248190  63.4465027  39.7713304  67.1002483  91.4901924  62.2092867
  67.7354622  90.9361744  62.6629448  66.7564726  90.9360695  61.5085793
  73.2839680 103.8362312  57.5866699  74.0600586 103.4679604  57.1644306
  73.5138893 103.8790894  58.5148573  42.3046160  22.0450926   8.6683393
  41.5753508  21.9440699   8.0566251  42.9606485  22.5415230   8.1790411
  81.8977928  43.2059765  66.2758255  81.2712193  43.4651518  66.9514513
  81.8530178  43.9073086  65.6259346  87.3202515  95.1794052  53.9061165
  87.4947834  94.6778774  54.7025061  87.0665932  96.0472393  54.2203617
  62.2443295  80.6693745  62.6016855  63.1167603  81.0373497  62.7419996
  62.3356199  80.1292324  61.8167353  82.0748711 101.0708809  83.3323383
  82.1040344 100.1141453  83.3264065  82.3445034 101.3241959  82.4495220
  62.4402094  98.1817055  83.8764858  62.1367741  97.3636818  83.4827900
  61.6597652  98.7348270  83.9110470  56.7439413  35.4604745  85.9428215
  56.4127445  35.2762508  86.8217945  56.9697094  34.6010494  85.5869389
  22.4820042  29.3288302   9.5915079  22.6645327  29.1118860   8.6772597
  23.3375955  29.5463800   9.9614668  70.4037857  57.0716333  56.4447403
  70.4655552  56.5390778  55.6517744  71.3077545  57.3210001  56.6368008
  78.2234097  70.7029581  52.8435373  78.0316257  70.6818914  53.7810898
  77.9552126  71.5782070  52.5638103  82.7758217  65.1740217  63.8259459
  82.3213196  65.9579086  63.5174322  82.0764256  64.5431137  63.9963531
 109.8269176  60.9355211  77.4624920 109.1596985  60.6345034  78.0792904
 110.6386948  60.9370708  77.9696798  57.1379614  92.2310066  79.3989038
  57.9385662  91.9828033  78.9366674  57.4455929  92.6635265  80.1954651
  57.0875597  69.1808176  66.9366169  56.1468649  69.0974283  67.0927477
  57.3674870  69.8794937  67.5279951  54.6963739  75.0682831  58.9884710
  54.8821974  75.8735323  58.5054827  55.5367470  74.6114683  59.0248537
  91.8898964  89.9973202  38.6395979  91.3627625  89.3997478  38.1092548
  91.3191700  90.7508850  38.7900615  86.9557095  85.7508373  82.3090458
  87.7408695  86.2948990  82.3703194  87.2864628  84.8526001  82.3048210
  98.9732170  83.6955738  82.4991226  99.4818306  84.3713284  82.0509052
  99.1668415  82.8912354  82.0176792  64.7501659  66.9888449  76.7701340
  64.4535446  67.8616571  77.0279121  65.3186083  66.7076159  77.4870825
  86.6091251  30.3909540  43.4260702  86.2188530  30.0599003  44.2349720
  86.3601112  29.7500038  42.7601862  51.1465693  85.1499176  91.0284901
  50.2935600  85.5812168  90.9775829  51.1337280  84.6921730  91.8690395
  63.0610037  36.0691285   2.2665270  63.3194447  36.2834096   1.3701323
  63.6085844  36.6313171   2.8145501  22.9410410  94.5541477  86.0313511
  23.0191064  95.2568340  86.6766167  22.0212173  94.5726967  85.7671356
  90.4338360  59.7831059  41.5891600  91.2619019  60.0990248  41.9507360
  89.8081875  59.8748779  42.3077440  16.3043845  34.4308925   4.0634018
  16.8571150  34.9055338   3.4425658  15.5158615  34.9679255   4.1412294
  79.7787619  67.8242779  75.6313467  80.0059700  68.5007238  76.2693357
  80.5340862  67.7849817  75.0446749  91.4412212  32.8934622  88.6365700
  91.0205555  32.2353506  89.1898918  91.7209530  32.4096465  87.8594589
  72.4723625  79.8942614  65.0900936  71.5421295  79.7200918  64.9466848
  72.6711178  80.6279945  64.5084095  71.8679237  94.7110462  77.8391266
  72.5524330  94.0542603  77.7114058  71.2239361  94.2797089  78.4007883
  38.6057281  92.0690632  73.5536528  39.2921185  91.4573383  73.2873964
  37.9443765  92.0015240  72.8649712  56.6927767 101.8109035  85.9398746
  56.4146090 101.5779400  86.8256474  57.2058344 102.6110840  86.0526276
  50.1492977  71.2124348  59.5815945  49.9922895  70.9458160  58.6757851
  50.6578398  72.0201015  59.5088196  58.1765223  70.5471849  64.6195602
  58.0444717  71.4514112  64.9044561  59.0004396  70.2846432  65.0299978
  46.0968399  85.1304150  58.7894773  46.5320301  85.9409428  59.0538454
  46.0729837  84.6004963  59.5862484  50.8684349  98.7934017  44.3351221
  50.7053518  97.8504181  44.3147182  51.8199396  98.8704491  44.4053698
  53.6614561 104.7302246  67.5044966  52.8405952 104.9790287  67.0796347
  53.4063244 104.4864082  68.3942652  87.6216984  77.9031849  58.9870596
  87.6416969  76.9528294  59.0995598  86.9900894  78.2082367  59.6384001
  11.0075009 104.1828060  86.1611938  10.1843953 103.7063789  86.2695789
  11.6289949 103.7176895  86.7212296  79.3205404  92.6123428  69.4956064
  79.0124846  93.0316448  68.6921644  80.2314568  92.8943729  69.5788765
  76.5596294  99.2035484  47.3700953  75.6686401  99.2716694  47.7132273
  76.4448500  99.0879154  46.4268637  77.0154095  65.8746147  90.6819344
  76.9057655  66.0724306  91.6120338  76.1466503  66.0111809  90.3039932
  90.7562542  26.4436603  66.7841864  90.9315109  25.6629753  66.2587833
  91.4335060  26.4341688  67.4605513  90.1804733  79.3976259  59.2066717
  90.3363800  79.5636272  60.1363850  89.3961239  78.8492250  59.1895294
  19.9943614  87.2302914  92.2284985  19.1120076  87.5620937  92.0623779
  20.3492403  87.8173065  92.8961086  30.6670594  98.2453251  68.5540485
  30.3204274  98.9867592  68.0577135  29.8985648  97.7110481  68.7545443
  47.1755743  85.8997536  62.9322290  46.6658545  86.6071606  63.3271837
  47.8077841  85.6541061  63.6076593  62.6652288  60.7779884  88.2223225
  63.5117626  60.7431412  88.6677456  62.2705555  61.5970087  88.5217857
  27.6640964  71.3713360  10.7845485  28.1622624  72.0508957  10.3303897
  26.9767737  71.1243296  10.1658344  82.1354675  68.0521631  25.7631087
  82.9659176  67.6575375  25.4969239  81.4669609  67.4979591  25.3603864
  84.6532059  84.4329453  32.3185420  84.2534542  83.5632133  32.3177862
  83.9688587  85.0108051  32.6561260  78.8377142  81.5896797  78.9759827
  79.0391541  82.5094795  78.8038492  77.9459715  81.6007996  79.3236971
  59.6884108  76.3136292  57.9189920  59.1902399  75.7110214  58.4711885
  59.6717024  77.1439791  58.3948898  61.0669184  91.9885254  49.2589808
  60.1585150  92.1125317  48.9839315  61.3690281  91.2333870  48.7542629
  70.6043577  71.7760372  61.5184879  69.8009586  71.8263817  61.0005617
  70.6998301  72.6495981  61.8979645  46.6935968  81.0291862  65.3767872
  46.9747686  81.6139889  66.0804701  47.4168062  80.4102135  65.2764177
  40.0702810  55.1194286  41.6227961  39.7724771  55.6370974  40.8747578
  40.7346249  55.6657219  42.0428467  83.2324982  66.2342548  56.4445543
  82.7445412  66.1309862  55.6275654  82.7152061  66.8568754  56.9554234
  66.6739798  73.8704157  43.2190418  67.5766897  73.8679743  42.9006910
  66.1633492  74.2195559  42.4885702  57.0931721  84.3835258  47.9385471
  56.4107609  83.8603878  48.3591127  56.8095255  84.4593334  47.0274830
  26.1953568 102.6604843  73.7160206  26.1818480 103.4503365  73.1754732
  26.4547443 102.9688644  74.5842695  64.9968195  78.9358521  82.4087143
  64.4687271  79.0505695  81.6186619  64.4019938  79.1496515  83.1275368
  89.0592194  64.6114159  42.2393227  88.1638145  64.6734571  41.9067001
  89.5961380  64.4776630  41.4582634  56.8163300  78.0004454  84.2932701
  56.8804550  78.8695478  83.8973236  55.9143353  77.7270889  84.1262054
  63.6444855  69.3787241  77.3422146  63.2137394  69.9428701  77.9844189
  63.4942341  69.8132992  76.5026903  76.6065884  80.5252457  63.5754204
  76.7360020  79.6019506  63.7922192  77.1406794  80.6647968  62.7934313
  40.6046295  91.4541626  46.4586401  40.1208258  90.6563759  46.2448788
  40.8329439  91.8307877  45.6087828  89.5012093 103.7643909  81.1206341
  90.0242805 104.5538616  81.2598228  89.8433399 103.1353188  81.7558098
  72.5465441  77.2158289  84.4998646  73.1148624  77.1547651  85.2676678
  73.1094980  77.5729084  83.8129807  77.4283218  61.4315081  73.9246225
  76.4788103  61.5525723  73.9254999  77.7475977  62.0370388  74.5936680
  56.1722231  68.6796618  80.9579277  55.9181833  67.7577353  80.9998035
  56.5453339  68.8646746  81.8197727  57.5791407  73.2370567  87.1216965
  57.3937178  72.9533863  88.0169010  56.7898083  73.0099773  86.6301537
  67.9484367  94.6082687  65.0437737  67.0180225  94.3995476  65.1274109
  68.2472277  94.0785789  64.3045998  89.8812962  41.6718578  17.9035079
  89.2949486  40.9343958  17.7344847  89.5742893  42.3616791  17.3151851
  72.2117662 104.3124390  53.4716082  72.6924753 103.4847355  53.4645224
  71.4150858 104.1309929  52.9729939  79.5296860  92.0504475  66.3915443
  79.1467476  91.4454746  65.7562447  80.2597523  91.5645123  66.7750835
  66.2848902  93.5185337  86.5762901  66.6906595  94.3692303  86.7432976
  66.2945700  93.4315491  85.6230927  67.1845675  74.1711426  61.8807316
  66.4301491  74.0461206  61.3050079  67.3503208  73.3037758  62.2501040
  34.2139053  45.7915831  10.4959035  34.9362898  46.4134836  10.4085565
  33.5180020  46.1543036   9.9478304  26.1968303  61.3387585  15.9662426
  26.6195846  60.5827045  15.5589414  25.3496337  61.4055681  15.5257607
 105.0615692 100.7091999  23.9995742 104.7813225 101.0242748  24.8588872
 105.1250076 101.4997292  23.4636045  77.2137213  79.6975327  70.6218672
  76.5242195  80.3179741  70.3855038  77.3940659  79.8797655  71.5440893
  78.1209850  71.0524178  77.7225590  77.1910715  70.8397198  77.6434994
  78.1898594  71.9500399  77.3973560  87.7178097  97.6705933  66.7728424
  87.1462345  98.2962418  66.3277626  87.8495407  98.0443478  67.6441574
  35.6397343   5.6851602  28.0114818  36.4305282   5.2287024  28.2987499
  34.9942899   5.4982281  28.6931610  89.6891785   4.2399266  54.8926830
  90.2139759   3.5242921  55.2514124  89.9870682   5.0163412  55.3666830
  55.9045744  77.0699835  62.4320269  56.6666842  76.7302608  61.9629765
  55.8428335  77.9849720  62.1577787   9.7452146  17.6007366   1.1683621
   9.9509031  17.5548947   0.2346476  10.5926764  17.7298141   1.5942487
   1.9679190  74.7659540  67.1407795   1.0285567  74.9044657  67.2617960
   2.1636789  75.1748991  66.2977695  78.1782866  64.2991161  60.9624624
  77.2593451  64.4423199  60.7360411  78.1605434  64.0417194  61.8842316
  80.9281921  70.1991606  39.8953223  80.8381176  70.9103346  40.5296326
  81.6931820  70.4398012  39.3727255  45.4426146  54.7157240  57.2179747
  45.7718658  55.4176188  56.6565800  45.4647732  53.9355183  56.6638851
  69.6341467  69.3672848  49.0240717  70.5406284  69.3202448  48.7202454
  69.5494032  70.2479315  49.3894672  74.9640846  85.1562309  82.3205471
  74.1842127  85.5512905  82.7103806  74.8538589  85.2875710  81.3788319
  82.0323181  82.0794582  40.2635622  81.8417168  82.3772049  39.3740368
  81.6194725  81.2178040  40.3213406  73.5764647  97.2930908  90.2028275
  73.4912252  97.2408104  91.1547947  72.9908323  98.0063152  89.9487305
   0.7925137   2.2064498  47.9672861   0.8309864   2.6197860  47.1047878
   1.0719885   2.8919616  48.5740805  58.5005331  30.8690453   3.7474647
  58.0301428  31.4950013   3.1968799  57.8138065  30.4215980   4.2418617
  22.9037571  21.9800997  49.2649746  22.1049786  21.4786983  49.1013288
  22.6148129  22.7261329  49.7905016   8.8777775  39.4259048   4.8363405
   9.5595628  39.1178203   4.2392769   9.3497258  39.9303174   5.4989600
  28.1062436  49.1194439   7.1470815  28.8187337  49.2423248   7.7743697
  27.4461579  49.7627401   7.4053276  93.3910751  68.5883331  76.0182142
  93.8579845  67.8915548  75.5569839  94.0430260  68.9615583  76.6114187
  83.6897659  80.3011417  67.7707577  83.6821938  81.2575245  67.7318859
  83.7241650  80.0997162  68.7058926  31.9351196  88.7326717  44.1665649
  32.8611732  88.9128017  44.0046644  31.6691279  89.3979359  44.8013210
  50.6071472  91.2112045  44.2439890  49.9328423  90.6348228  43.8843632
  51.3222313  91.1685085  43.6091089  72.4560165  74.4736624  73.6775303
  72.3329735  74.1436195  72.7874947  72.1906710  73.7470007  74.2412567
  71.8341875  84.8836040  34.3263960  71.0661745  84.6496582  33.8051891
  71.5349817  84.8244381  35.2337050  81.4045238  57.3040438  77.2739220
  81.1071110  57.6585484  78.1118345  82.2411346  57.7403164  77.1126938
  76.6277885 103.4799767  60.8743954  76.7768240 103.3607483  61.8123722
  77.1563244 102.7983379  60.4593563  91.7306900  37.1532512  28.7165952
  90.8543777  36.9993901  28.3635688  91.6689873  38.0056500  29.1476870
  44.7620773   0.9505455  85.0786686  44.1055346   1.6470286  85.0886154
  45.2231455   1.0678598  84.2480755  60.2226400  85.3630257  73.1543207
  60.4083824  85.3187275  74.0922832  60.8763313  84.7901630  72.7533913
  90.9676838  20.6791186  92.9440212  90.7344437  20.0088716  92.3016834
  91.1895847  21.4476943  92.4183941  57.0328045 106.6369534  60.4318523
  56.4952612 105.8656597  60.6117868  57.6013374 106.7166519  61.1977863
  74.2385197  65.7260323  86.4157009  73.8915348  65.0540638  87.0024681
  74.2335081  66.5271807  86.9395065  62.3895741  69.6709061  50.9437943
  62.8704357  70.0622177  50.2144909  62.2834110  70.3855991  51.5716267
 100.2112770  80.5836105  90.1513577 100.9627438  80.1340771  90.5379391
 100.4370403  80.6749344  89.2256546  93.0310631   1.0399682  53.0197763
  92.3976421   1.5257454  52.4915457  93.0404282   0.1630605  52.6361370
  78.7034559  93.7571430  76.3774729  78.0986261  93.9112282  75.6517506
  79.4256449  93.2649899  75.9870100  97.8836346  87.9997635  84.4648552
  97.7442360  87.4293709  83.7089062  97.2093678  88.6742878  84.3835068
   2.7145532  91.8168068   1.8742576   2.7640086  90.9015560   2.1501236
   3.0423337  92.3114014   2.6253691  68.7850142  83.2560062  65.5669975
  69.0143728  82.4117661  65.9554338  68.1233215  83.6187553  66.1559010
  63.7265253  69.7005701  69.2268324  64.0155649  69.4827652  70.1129770
  64.1024685  69.0134382  68.6766052  56.5849113  74.4844055  56.2211418
  56.6911650  74.5932341  55.2761030  55.6945372  74.1487312  56.3249731
  15.8070242   1.3470319  57.0219564  16.0600233   2.2692753  56.9808435
  15.3594720   1.1842021  56.1916447  58.9247370  88.7155819  73.2894707
  58.6705303  89.4307804  73.8726521  58.9345407  87.9405308  73.8511133
  49.5840359  27.5780725  12.2467959  50.0219011  28.3735704  12.5496030
  49.2057800  27.1965265  13.0389917 101.5832424  81.8966866  60.9723759
 100.7401371  82.3003197  61.1785126 101.4153385  80.9553719  61.0166216
   2.8520444  14.2465949  85.1787567   3.1593668  14.9608219  84.6204853
   3.5325924  14.1538954  85.8454609  76.1824083  90.8211136  84.8500729
  75.5194473  91.1046696  85.4796124  76.3514280  91.5963936  84.3147087
  49.1384125  80.4746056  56.0317659  48.5926723  80.8532524  56.7209864
  49.2165089  81.1701679  55.3788280  81.0152435  19.1757274  47.9874086
  80.1074314  19.1815865  47.6839781  81.3203621  18.2854009  47.8129101
  44.1567087  96.8671322  71.3900995  44.3028641  95.9961891  71.7593241
  43.2044029  96.9613075  71.3682890  66.1916256  70.7588482  15.6999075
  66.9486904  70.2189493  15.9270525  66.5269566  71.3828659  15.0561798
 102.9085159 106.6006565  83.9729404 102.4663162 106.7816544  84.8023510
 103.4922314 107.3483372  83.8445759  87.4374008  64.0956783  68.0917645
  88.0415249  64.4403744  67.4341536  87.9818344  63.9537668  68.8661575
  87.5882244  97.7698040  57.4355793  87.0896435  96.9916058  57.6846743
  87.5836754  97.7609444  56.4784288  63.0884933  20.6771541  10.2273679
  62.4373055  19.9756026  10.2240503  62.6564360  21.4070797   9.7837830
  97.5716972  97.7503586  83.2542133  98.3637810  97.2660637  83.0212116
  97.7953815  98.1966782  84.0709114  68.2995415  95.7369232  76.4609766
  68.1338406  95.8668518  77.3947334  68.0406332  94.8303604  76.2956476
  74.1361761  90.5305290  78.3601809  74.2825270  91.3622189  77.9095125
  75.0095129  90.1486206  78.4477043  52.2622776  45.9642506   6.9397235
  51.8371058  46.5193653   6.2860358  51.9132185  45.0885439   6.7738283
   0.3503526  77.4566412  38.8347173   0.5054561  78.3338165  39.1850591
   1.0718364  77.3122358  38.2224774 104.8392200  91.9786549  44.4974375
 105.0960827  91.8511677  43.5841990 104.4699001  92.8614140  44.5213699
  98.9507198 105.5271149  79.5003843  99.6987057 105.5179119  80.0975990
  99.2078209 106.1311817  78.8037968  28.7147307  28.9495373   2.0929453
  29.4083595  28.5195184   1.5927514  27.9930902  29.0421677   1.4709425
  16.5788019  34.9006081  17.5308228  16.0004687  34.1924930  17.2473836
  17.3084509  34.8762465  16.9117498  91.0648918  97.1298504  71.0947847
  90.6446362  97.6263809  71.7969799  90.3434372  96.8633461  70.5249596
  91.8793774  16.4056933  85.0900745  92.0819473  15.4986572  85.3191662
  91.5827084  16.3625944  84.1810322   0.7863022  15.3174913  37.5053358
  -0.0972014  15.6718612  37.4049616   0.9480459  15.3409374  38.4484816
  78.8684988  47.6489687   1.5422614  78.4739161  46.9586325   1.0093720
  79.2868423  47.1830797   2.2662547  47.8905487 101.4229107  66.0234213
  47.1048641 101.8021870  66.4172173  48.3371544 102.1655941  65.6169796
  27.0172739   9.7000873  87.0347118  27.9291320   9.8905557  87.2548676
  26.9202232   8.7633115  87.2057819  84.4356060  96.7601204  40.2956152
  83.6216259  96.2626171  40.2170181  84.1757584  97.5795937  40.7165337
  32.4575424  29.6720290  26.8475366  33.2084799  30.1071692  27.2512460
  32.0410681  29.1968250  27.5665355  78.8328362 102.6470089  68.5357285
  78.7399673 101.7005444  68.6444473  77.9392242 102.9841805  68.5989523
  86.5063858  99.1367722  76.5134382  86.2213039 100.0137806  76.7699862
  86.2706757  99.0694141  75.5881596 100.2760315  78.2313919  76.2776041
 100.0015068  78.2729435  77.1936512 101.2302589  78.2994175  76.3102102
   0.6103109  81.5438938  64.7347498   0.6481791  81.0240746  65.5376148
  -0.3124196  81.5255642  64.4808531  80.8172989  90.9641743  73.0238771
  81.6627884  90.5199337  73.0874968  80.2424717  90.3257561  72.6017189
  70.2228546  90.5480480  37.9809046  70.3296375  91.4883709  37.8372765
  69.4079924  90.3278351  37.5295401  23.5035968  42.7817202  22.9477453
  22.8357697  42.8821850  23.6260843  23.0315638  42.4172211  22.1990418
  56.7455387  85.3261375  63.4514570  57.6731253  85.1799965  63.6370802
  56.2953043  84.6137619  63.9053726   4.0334153  29.0085745  67.2750616
   4.2963213  28.2941556  66.6947889   3.5175970  29.5918536  66.7183352
  60.3521967  89.2128754  38.2340360  61.0207844  89.5302963  38.8410449
  59.5218563  89.4152927  38.6650777   2.3673195  97.1498680  27.8367281
   3.0639443  97.7663136  28.0624223   1.5780836  97.5278187  28.2246614
  82.6282978  77.2057629  55.5702639  82.2155380  76.6111279  54.9439478
  83.4967232  76.8317127  55.7191086   6.4148885  28.1049681  75.5420637
   6.1606389  28.5531235  76.3487530   6.6012341  27.2068024  75.8155727
  61.3414001  94.6818638  49.6836424  60.9927273  93.8598919  49.3386602
  62.2847700  94.5333290  49.7486448  10.2632034   2.6694095  74.2568874
  10.9381258   2.4526356  73.6136770  10.1472712   3.6158270  74.1727114
  80.0064945  87.6983547  55.1042700  79.5631695  87.1871948  54.4272041
  80.7253647  88.1321812  54.6446609  81.3691902  78.1470776  57.6503706
  81.5393925  77.3745346  58.1892920  81.9215393  78.0266905  56.8779373
 110.9910488  11.1421311  54.5757151 110.6307030  11.8708801  54.0704346
 111.8987656  11.3940752  54.7454739  72.5414515  65.7955742  83.9981937
  72.8221560  65.6947184  84.9077320  72.2625160  64.9185658  83.7349701
  93.9239025  86.6994095  55.6838274  94.1696072  87.5364113  56.0779047
  94.6449375  86.1098671  55.9046698   3.8345960  61.0155869  92.2020149
   3.8103747  60.2579451  91.6175365   3.0436200  60.9325743  92.7346420
 103.2427406  78.1355810  71.3823605 102.9077435  77.3694086  70.9165382
 103.8760185  78.5246468  70.7791805  83.8741589  67.5391245  38.8475990
  84.4008636  68.3266258  38.7110209  84.1697216  66.9325638  38.1686592
  25.9202242   6.8406624   2.2383715  25.4051089   6.8912339   1.4331807
  26.6376591   6.2434375   2.0266169  52.0982838  28.9743805   9.0664715
  51.4427090  28.2854033   8.9580029  52.9028130  28.5977411   8.7099451
  61.7762184  84.2874241  64.8582792  60.9343481  84.6971893  64.6593380
  61.5458775  83.4485054  65.2575016  18.9377737  83.1104088   6.8971199
  18.8851523  83.3566570   5.9736323  19.3218136  83.8744545   7.3272175
   3.2957351   1.8205640  87.8837967   3.9755157   2.4768937  87.7309513
   3.6843747   1.2159478  88.5159588  82.6672935  69.1393757  65.1269913
  81.8250561  69.4813251  64.8270893  82.4392796  68.3909273  65.6784105
  83.7774658  90.4169083  92.6015759  83.2832432  91.0685635  93.0988789
  84.6444988  90.8071136  92.4909210  75.6814289  95.8116341  89.2227650
  75.0324106  96.4080048  89.5960522  76.3667870  95.7562351  89.8886776
  74.3634701  77.8889418  63.9141893  74.7494030  77.6692724  64.7621489
  73.5377455  78.3214951  64.1316891 109.7003746  49.8276806  58.2523727
 110.4258060  49.3489361  58.6533594 110.0672817  50.1852942  57.4438381
  83.9924240  44.9983740  81.2797642  83.3944798  44.2571449  81.3760567
  83.4208298  45.7461596  81.1056232   2.1886358  85.9801960  69.0293980
   2.0821114  86.3683224  69.8978710   2.1643554  86.7255592  68.4293318
 103.9976406  12.6983130  81.8222427 103.7882996  13.4761095  81.3051033
 103.8336182  11.9650948  81.2291813  22.0074582  50.5925703   0.6123469
  22.1728659  50.7588530   1.5403676  22.7870846  50.1268721   0.3097908
 105.0514126   4.7117683  56.0920954 104.8975563   5.0054693  56.9900370
 105.5279255   3.8871834  56.1881351  90.3619957  72.9042387  67.2864485
  90.6990433  72.0732594  66.9516182  90.4443169  73.5102224  66.5500832
  44.1148186  83.2951927  79.3301249  44.6291780  83.4810066  78.5445404
  44.7648430  83.0575275  79.9913454  80.3763485  87.2749424  57.6117754
  79.9520683  87.9668522  58.1191921  80.1697445  87.4848175  56.7010117
  97.4835300  67.4310398  70.5828428  98.4178448  67.4927855  70.7815313
  97.0671558  68.0327559  71.1999321  95.8256817  68.4804249  58.3619452
  96.2602997  69.3315554  58.3079386  94.9703217  68.6722326  58.7464046
  73.6003208 104.2311668  37.1092796  73.8217783 104.8488045  37.8062034
  72.9650927 104.6992016  36.5673757  69.1341972 100.6838989  61.6809607
  68.6643887 101.5178585  61.6760302  69.6790218 100.7112694  60.8944178
 100.3840923  81.0390091  70.7845020  99.5167542  81.3677979  71.0208273
 100.6576729  80.5198765  71.5407324   5.5276138  94.0987015  30.9906411
   4.8049867  94.5706749  30.5767727   5.1045609  93.3889198  31.4738226
  73.1289148  64.2935753  51.3923311  72.5174904  63.5956764  51.1571026
  73.3190823  64.7345543  50.5643177  51.6677761 100.5444527  81.7037964
  52.5866127 100.7904625  81.8107891  51.4647102 100.0309277  82.4856472
   2.6425475  16.1032891  78.4725666   3.4769198  15.6369388  78.4218502
   2.5828439  16.5782213  77.6436472  80.4010201  82.4407005  68.6180544
  79.9550962  82.6860714  67.8073883  80.4898834  81.4891720  68.5639763
  62.0254660  74.0181732  75.3205538  61.3736391  74.3414307  75.9425354
  62.8672314  74.2271137  75.7255220 105.8759975   0.6068651  91.2136173
 106.6439533   0.0932527  90.9632778 105.9873199   1.4415331  90.7584572
  55.8041573  41.2910175  34.1714406  56.2900734  40.8828688  33.4548283
  56.1729908  42.1716452  34.2398953 113.1494331  99.6982479  54.3393040
 112.9873848  99.8850250  53.4145975 112.5303364  99.0007496  54.5548391
 113.3543491  95.3426838  86.6677761 112.5390720  94.8421097  86.6989899
 113.1468201  96.1662102  87.1093464   0.5349006  67.9833078  74.9081659
   1.4066269  67.5901318  74.9498367   0.3922137  68.3428478  75.7837248
  74.4097328  58.3508253  21.6050267  73.9591503  59.1547203  21.8638086
  74.3681479  58.3501720  20.6487298  69.4485378  98.6198235  83.9037991
  69.0281057  99.0907669  84.6232986  70.3780174  98.8318253  83.9895344
  75.9242344  95.0628281  46.6406202  76.6071892  95.7316399  46.5906096
  76.3794279  94.2780399  46.9458008  50.8595324  98.8008118  83.6762333
  50.1785612  98.1300354  83.6255932  50.4258680  99.5523453  84.0804291
  43.1088114  30.3310061   8.1982738  42.9098558  29.6164632   7.5932330
  42.3365593  30.8955503   8.1644160  35.5649304  26.5826821   2.0825624
  36.2673473  26.7465162   1.4532772  34.7661805  26.5818501   1.5550885
 106.8288612 100.1470470   6.1939692 105.9394646 100.0758553   6.5405768
 107.1298790  99.2415142   6.1189622  37.8413010   6.5957046  80.4266644
  37.4170971   5.7750428  80.6772518  37.1636128   7.0819730  79.9570704
  44.1775036  38.7007165  22.5816345  44.6019554  38.7857151  21.7279077
  43.9663839  37.7697849  22.6525259   3.2455942  83.7515736  91.5989017
   3.1197926  82.8048801  91.5342426   2.3797163  84.1206837  91.4249897
  89.9024677  87.3141384  49.2964745  90.4049873  87.0178509  50.0553656
  90.4488468  87.0872688  48.5439920 106.2338161  79.2267370  60.4051876
 105.3676796  79.1649532  60.8079386 106.8076992  78.7380362  60.9951544
  84.3300152   2.6008919  63.0081367  84.6557808   3.5003972  62.9765177
  84.4188213   2.2822838  62.1098995 106.6890240   1.2314820  59.7312641
 107.2844410   0.4836278  59.6819401 106.2796688   1.2691376  58.8668346
  69.7547054  91.2720299  66.2081051  69.7385979  91.7693996  67.0257807
  68.9259529  90.7931042  66.2027121   5.5314821  25.2444434  84.0812683
   5.0066733  24.9048758  83.3563519   5.0363559  25.9977722  84.4030952
  91.8285751  90.7413387  79.7077417  91.3677025  90.3387737  80.4437923
  91.8120193  90.0745392  79.0212107  70.0864506 105.7788754  50.0438499
  70.2990913 106.4459324  50.6965733  69.8963404 104.9935913  50.5570793
  68.3750725  68.1156778  51.2082100  69.0100336  67.4257040  51.4005327
  68.7309265  68.5611105  50.4393196  49.4622898   1.3391241  52.9081059
  49.8026562   0.5178043  52.5534010  48.5244513   1.1821871  53.0179071
  54.4244480  81.5180969  55.6645918  53.9752531  80.7008457  55.8803701
  54.7333527  81.3919544  54.7674322  50.5002499  69.9193907  83.4544659
  51.4194202  69.6540356  83.4237862  50.1280594  69.5886230  82.6369667
   8.6875439  75.0697374  71.8245935   9.4186515  74.9852753  71.2125683
   8.3759612  75.9666300  71.7032051 111.4334202   2.4300873  83.7366486
 112.3231316   2.5416183  83.4016800 111.0610580   3.3118227  83.7256241
  82.0399284  84.2171669  56.4030266  82.8711128  84.0733624  55.9506083
  82.0283413  85.1558399  56.5901089  89.3481350  91.7399597  38.1891394
  89.5839977  92.3634815  37.5022459  88.3924389  91.7767334  38.2281137
   7.0200813  85.1025200  68.0143309   6.1069787  84.8978138  68.2157564
   7.0352483  86.0541058  67.9119635  86.3892937  72.5129700  66.5235424
  86.8621349  72.0868587  65.8086395  85.5702686  72.8088188  66.1261797
  62.7121210  95.6378078  82.8543091  62.1043396  95.1837063  82.2706699
  63.1170034  94.9395275  83.3687973 105.9422493  88.2301998  63.6142206
 106.6113186  87.9055786  64.2168713 105.2471542  87.5731850  63.6515903
 101.0394478  85.1324654  81.4430332 101.2170982  85.6585217  80.6633282
 101.5575600  85.5455303  82.1338081  63.9344931  74.0158272  60.0881720
  64.3855429  73.4691906  59.4447660  63.0833054  73.5941410  60.2060461
  77.4765778  69.7314739  86.2040138  77.9811335  70.2723694  86.8115425
  76.9903326  70.3602409  85.6706715  97.6810741  89.8751259  44.5998669
  97.7483368  88.9234638  44.6776867  98.4543610  90.1295090  44.0963411
 100.9948063  91.0117722  68.4976435 101.7114830  90.8083248  69.0986586
 101.3998985  91.0037041  67.6304197  75.1218033  82.8342247  90.2248764
  75.4192209  82.2960281  89.4913197  75.7072592  83.5914898  90.2191925
  91.6149330   0.5721780  64.1778278  92.4624062   0.1610285  64.3480301
  91.7130566   0.9748736  63.3150196  19.8361099  75.4969931  55.9286118
  20.5802822  75.1059580  55.4708624  19.8450541  76.4155006  55.6593513
 109.3609238  99.1197205  79.8492050 109.4258118  99.7512913  80.5655384
 108.8522625  98.3954525  80.2137947  59.0979862  95.9107780  66.9318628
  59.6400881  96.0323906  67.7113295  59.6967125  95.5508232  66.2774992
  16.1243427   0.6921147  80.6158638  17.0052755   0.3599812  80.4430103
  15.8278620   1.0348038  79.7727156  96.7831993  14.6628761  65.9165096
  96.6688442  15.4255259  65.3494835  96.0997677  14.7534811  66.5805387
  85.7739544  83.9757824  84.1860867  85.3839111  84.0830421  83.3185673
  85.3020096  84.5980644  84.7394943  81.3355923  83.1575012  89.7008991
  82.0827484  82.8665829  89.1780663  80.6921482  83.4516811  89.0561867
  71.2613916  83.6311817  62.3338604  70.3822327  83.5596657  61.9621134
  71.2591934  84.4703484  62.7943325  54.0916777   8.3468378  55.9564829
  53.7183094   9.2090261  56.1394024  53.3593941   7.7403808  56.0669613
  49.0603161  93.4613991  34.2999244  48.8759899  94.1277695  34.9618983
  48.1984329  93.1320763  34.0451097  84.7261333  66.9797230  36.0515547
  85.6375504  66.6879320  36.0310054  84.7337246  67.8212500  35.5954814
  56.6037703  32.6222849  15.9285998  56.9599104  32.3303270  15.0894582
  57.3465300  33.0277514  16.3759696  92.4207020  78.7250662  41.9620705
  92.9012489  78.5712290  42.7754879  93.0707169  79.0984201  41.3668203
 103.1514835  90.4142284  69.7545052 103.9991570  90.8527279  69.6810007
 103.3663082  89.4821358  69.7903538  70.8598661 106.3998413  87.1470165
  71.7778921 106.6695023  87.1742725  70.8341885 105.7033920  86.4908791
  88.9834785  62.7993917  91.4470291  89.5504761  63.3869314  91.9465637
  88.1974316  63.3167410  91.2717915  77.2941828  66.8560743  85.7950115
  76.5655756  66.6596556  85.2061272  77.2715807  67.8077841  85.8948517
 100.0814247  82.4150658  53.9837599 100.3616333  81.6208744  53.5288191
 100.4241848  83.1310654  53.4488821  22.4581456   0.7065374  57.2172451
  22.5776100   1.6559154  57.2425747  22.6357269   0.4188171  58.1127453
  97.7487755  11.0989141  68.7856913  98.1164265  11.9504070  68.5489845
  97.2253895  11.2731123  69.5679617  67.8062630  82.5498199  78.9764404
  68.7279415  82.6298237  79.2220736  67.3631144  83.2292461  79.4846106
  38.2961226  15.3557217   9.4522220  38.7952662  16.1358213   9.6941572
  38.0205226  14.9790037  10.2879012  94.4138432  96.7200756  87.8961754
  94.5852661  97.6593304  87.8280735  93.6263466  96.6589069  88.4368610
 105.2146435  63.5590696  63.7882185 105.1049328  64.4710636  64.0573978
 105.1029015  63.0561352  64.5949459  98.0127048   9.9758649  57.2809124
  97.6227570   9.2883319  56.7410326  98.8778782  10.1197064  56.8974781
  77.7360249  76.2966299  72.6757288  77.8766727  76.1991930  71.7339468
  78.2860422  77.0394993  72.9244423  81.6037083  96.7226505  76.4164257
  82.1619892  95.9528732  76.3068867  81.2813091  96.6587353  77.3154306
  96.7115402  94.7190094  77.7298737  97.1597290  95.4912949  78.0747557
  96.1811352  94.4032574  78.4614468  95.5384636  97.9370499  32.0392466
  96.3457394  98.3706760  32.3158193  95.6609344  97.7771950  31.1034703
  85.4644394 106.0596275  80.3614998  84.6496773 105.8802128  80.8307743
  85.1906395 106.5445614  79.5829773 111.5304661  36.2747192  52.1020412
 112.1847153  35.5775833  52.1488667 110.7334614  35.8356571  51.8049908
  22.7386546  13.2523906  42.3325443  22.7202940  12.4212587  41.8580866
  22.5515699  13.0140376  43.2405233  70.1417208  97.9134178  42.7159405
  69.7394657  98.7572670  42.5101900  71.0597801  98.1216240  42.8892899
  18.4436560  37.3897958  59.6451044  17.7251017  37.8273153  59.1885042
  18.3081853  37.6060891  60.5676556  16.5823996   5.2227247  63.6272860
  15.7256532   5.4944903  63.9564657  16.8838251   4.5673186  64.2564249
  56.4048958  92.8713703  73.0438852  57.3247480  92.8816319  72.7793074
  56.1481953  93.7934494  73.0537176  16.4349222   2.7483627  72.0926189
  16.6035903   3.6902353  72.0669508  16.1478031   2.5321922  71.2054539
  18.9859128  16.2181282  91.8957424  18.7321556  15.4620385  91.3664341
  18.2595539  16.8337739  91.7976856  73.2424355  52.1020794  89.9191666
  72.8356123  52.6877117  89.2806053  73.4997702  51.3337421  89.4095898
  49.0506697 105.9638786  65.4331589  49.0961218 106.9163704  65.5163860
  48.4205341 105.8148479  64.7282171  97.4353027  27.3732829  83.4029102
  98.0496407  27.1999311  84.1161919  96.6599751  26.8572640  83.6238670
  55.3527069  25.9713173  15.0572467  54.9509382  26.7087746  15.5165625
  56.2442493  25.9306312  15.4032743  68.8615751  15.9354699  26.0031176
  69.1937733  16.8230593  26.1375141  68.0098581  15.9298098  26.4398956
  91.5620136  97.0244980  59.8188972  90.9219170  97.5493908  59.3382645
  91.1295605  96.8194103  60.6478453  23.1133246  26.0120654  69.4312572
  22.4995685  26.2696052  70.1191616  22.8394938  26.5160966  68.6649656
  81.6822338  35.5883408   3.2945046  80.8151245  35.9918451   3.3336067
  81.8455601  35.2846169   4.1874260  88.9860916  88.5182381  45.6974554
  89.0901470  87.5929546  45.4754925  89.8778629  88.8286591  45.8543587
 107.3121166  94.1500854  42.6324224 106.4627266  94.5909691  42.6523590
 107.0981121  93.2172012  42.6451540  43.4665251  37.3553896   0.6959741
  43.5589981  37.5231409   1.6338119  43.3946371  36.4032507   0.6289168
  12.5441408  25.3242826  63.6335278  11.8941116  24.6228957  63.6753559
  12.3131979  25.8182693  62.8468418  96.2672997 103.3194256  49.8580265
  95.3586483 103.2148170  49.5758200  96.7792320 103.2340431  49.0537453
  55.6994629  71.5334177  57.3841190  56.3216305  71.6412067  56.6647339
  56.1243105  70.9139633  57.9774284  23.8896585  -0.0720112  77.5135660
  23.5679221   0.1846520  76.6493702  24.2241669   0.7395218  77.8953409
  88.9067459  90.4158306  62.2698498  89.2621422  90.1943874  61.4090967
  89.2694759  89.7522831  62.8566742 114.1260045  87.8529549  83.7629700
 114.0180432  86.9566727  83.4447670 113.3050422  88.0470562  84.2152786
  79.6986723  69.1385031  64.1073990  79.2078733  68.6610365  64.7762585
  79.2033815  69.9474144  63.9786386 107.5012302  90.3746128  73.8465643
 106.8872929  90.5151653  73.1257582 108.3412170  90.2118015  73.4174395
 103.5414982  82.6677990  25.9697676 104.1960812  82.1878052  25.4624748
 102.7407742  82.6035976  25.4492354  70.6770802  33.7695599   9.3733841
  71.0865593  33.5910821   8.5267985  70.8497810  34.6975803   9.5320761
  81.0620880 100.0287724  31.5398550  80.8200932  99.1046238  31.6000438
  81.2981415 100.2733135  32.4346781  88.9533234  87.7654743  69.4895649
  89.7902107  88.1552410  69.7424269  88.3944130  87.8785706  70.2583694
  75.5947351  90.0480938  35.5876136  74.6945572  90.2805614  35.8153510
  75.5049038  89.3627739  34.9254203  58.0433416  75.6809759  68.5812235
  57.5728893  75.2724791  67.8545618  58.8824558  75.2214289  68.6118031
 112.4159908  75.6986618  64.0221930 113.0578709  74.9906683  64.0766859
 112.9165745  76.4912224  64.2158318  53.5485935  80.0076866  48.8076973
  53.8523054  80.0344276  49.7150421  54.3508387  80.0271893  48.2859182
   7.9623085  96.8771362  77.2674131   8.4976053  97.5613499  77.6693344
   7.2527802  97.3516273  76.8342209  33.7295055   3.8695812  77.0670033
  33.2181334   3.0697563  77.1895218  34.0683436   3.8028347  76.1742735
  44.4566441 104.1184711  41.1603928  43.7845945 103.4790802  41.3965368
  43.9761925 104.8192120  40.7195282  80.4212379  85.0057983  83.0736065
  80.4161644  84.9009514  84.0250397  79.5337343  84.7716141  82.8021049
  19.8800337  64.8377132   6.2176108  20.4136753  65.5632973   6.5416282
  18.9797282  65.0953674   6.4158422  98.9735603  97.9696274  47.7560568
  99.0871620  98.4189796  46.9185543  98.4972095  97.1691513  47.5357056
  97.2921467  89.4203663  67.7309036  97.6828766  90.1289368  68.2422543
  97.9840088  88.7620640  67.6660919  63.2855177  78.7481546  86.2030983
  64.0944147  78.2511616  86.0809708  63.0511475  79.0441370  85.3234959
   5.0438780   1.7975411  81.9174957   4.9632710   0.8735593  82.1541214
   5.6283414   1.8005463  81.1594582  91.3455868  70.2131701  57.1137905
  91.6917706  69.5589399  57.7207279  91.1621189  70.9756517  57.6625967
  83.2322788 105.6714630  66.8075037  83.9172745 105.9041119  66.1807060
  82.5624561 106.3453197  66.6913748 108.4585094  95.7911873  75.0316477
 108.4386349  94.8462105  74.8804522 109.3898773  96.0058975  75.0835323
  59.3156672  98.2666302  60.0475979  60.2122974  98.5700893  59.9054813
  58.8805532  98.4026051  59.2059183   7.7326071  24.1158462  78.4703207
   8.0226898  24.9615502  78.1284618   8.5058653  23.7547588  78.9038181
  90.1791668  85.2447796  66.5947056  90.4442406  84.8603439  67.4302769
  90.9458733  85.7388878  66.3044405 107.6444054  87.9453373  75.4549551
 107.6778603  87.4567127  74.6325445 107.6266289  88.8641357  75.1871061
  94.7051334  75.7428837  57.5770426  94.5321655  74.8352385  57.8270435
  94.9802208  75.6909275  56.6616964  91.6139412  61.7982006  47.4030352
  92.2097492  61.2793112  47.9433966  92.0155239  62.6664448  47.3697138
  21.8662143  19.6035492  51.7254019  21.1836028  19.1370344  52.2077274
  22.4187088  19.9893880  52.4051952 108.6614895  86.9802094  63.1862020
 108.5388851  87.5338650  63.9573431 109.5298958  87.2144890  62.8587627
  16.4940953  11.7519605  63.4662294  16.2928689  11.6744792  62.5336361
  16.7837346  10.8763111  63.7223148  88.7235355  93.8091660  85.2322006
  88.5624790  93.0905724  85.8436775  87.9111481  94.3153477  85.2381420
 103.7472057  77.0429516  73.8194656 103.7365532  76.0889482  73.8968897
 103.2513905  77.2240019  73.0209589  68.8815403  92.5789452  50.7329226
  69.4153166  92.5739861  49.9383879  69.1213608  93.3920002  51.1775112
 113.8058472  21.5390182  48.7374687 113.3038521  20.9205198  48.2067251
 114.2734337  20.9900331  49.3669271  83.0169868   1.0624447  79.1636467
  83.6820507   0.5073958  78.7564087  83.4890270   1.5411955  79.8449802
  72.9829264  85.3707123  43.4630108  73.6918926  85.9854603  43.6519098
  72.4069262  85.8460522  42.8642511 104.9521351  17.1321797  57.3314047
 104.6021748  17.7953804  57.9263163 104.1790104  16.7555690  56.9110775
  23.0738187  12.2181988  21.1694884  22.6325464  12.4538362  20.3534102
  23.9979815  12.1477175  20.9303498  94.3922329  94.4948673  81.8647003
  94.5624447  94.4349480  80.9246635  94.6253490  93.6314297  82.2058296
 110.1265526  25.6529999  91.8037224 109.4535351  24.9939132  91.6337395
 110.7029724  25.6089950  91.0408115  86.5586853  67.3516750   7.1379644
  85.9571457  66.6609287   7.4159157  86.5222263  67.9987717   7.8423536
   7.2092456  17.0753932  45.4987621   7.9139447  17.5203705  45.9695339
   7.1259093  16.2285006  45.9370089   5.8384222  56.9288540  85.0179482
   5.5251431  56.8485022  84.1170406   6.6063720  56.3587475  85.0562286
  92.9065990  99.9259567  48.1277275  93.5584641  99.3474197  47.7320051
  92.9423141  99.7230816  49.0625000  65.6324577 104.2400837  76.6121721
  65.1415634 103.4548473  76.3699627  66.5463209 104.0142250  76.4387655
  60.2927732  64.8828888   4.1870180  59.6281099  65.3615665   3.6917168
  60.1302433  63.9628458   3.9788300  81.7451096  93.5999775  69.7629356
  82.3707485  92.9987907  69.3587399  82.0615101  94.4712162  69.5240498
   0.3914499   6.5981251  76.9970798   0.0834322   6.9558263  77.8297949
   0.4538011   5.6552535  77.1498442  21.1428809 102.7789211  60.5088806
  20.8262801 103.5724449  60.0772285  21.4678073 102.2310066  59.7944260
  94.8237133 106.7040443  79.6972179  95.4079914 106.0007954  79.4138718
  94.4401646 107.0380974  78.8863373  17.7491939   2.2187273  59.8663712
  16.9800973   2.4502710  59.3456888  18.4677422   2.7043229  59.4612551
  83.3510590  56.3603926   5.6969166  83.8092422  56.0382700   4.9206889
  82.5829601  55.7943869   5.7737678  64.2635059 106.5768242  70.2293634
  64.0732050 107.4477863  70.5778456  63.5805178 106.0167694  70.5982685
  14.0076828  59.5329285  19.0255880  13.6075640  59.3652964  19.8788393
  14.5656097  60.2974272  19.1687202  31.9408536   8.3938664  64.6910667
  31.1442924   8.7027973  65.1226711  31.6332984   7.7496994  64.0533400
  17.0608866  69.8381567  17.1278298  17.8872657  69.6040535  17.5503516
  17.3188639  70.1916361  16.2765193  33.3574247  23.8557768  77.8354549
  33.7878394  24.6567202  78.1345606  32.5066805  23.8629031  78.2741070
 108.1793022  17.7312243   9.1067737 107.8534603  18.5652554   9.4450861
 107.5902653  17.0751071   9.4793040  29.8518324  23.0648899  65.5976248
  29.2328358  23.6969447  65.2321386  30.7134581  23.4156847  65.3722811
  15.9438193   4.7616032  89.8856354  15.7213056   4.4233656  90.7529926
  16.3133526   4.0095946  89.4228554  51.6085482  95.7921886  42.3409414
  51.0444164  96.4546776  41.9420719  51.1421585  95.5260658  43.1333351
  39.9794412  22.4647474  58.5893536  39.9748349  21.5822697  58.9600849
  39.1248465  22.8271413  58.8229609  52.3492432  74.8740721  74.4164276
  51.6028214  74.6844435  74.9848747  53.1101608  74.5687675  74.9104166
  94.3855381  79.4929886  49.1871929  94.9258423  80.2242661  48.8879776
  93.5732937  79.9018860  49.4860268  41.0558176  73.4881878   1.0226116
  41.5063477  73.8271046   1.7961669  40.5279350  72.7609539   1.3523102
   9.3133223  90.9164333  57.9817486   9.4149429  91.4380264  58.7778997
  10.0235724  90.2760410  58.0226755  90.7311058 104.1709709  74.0281963
  90.8909035 103.8419628  73.1436300  91.1217022 103.5125828  74.6028185
  48.3710909  55.5171108   8.5283393  47.9211855  56.3305330   8.7567317
  48.6565828  55.1573658   9.3681651  57.1959782 102.0573235  51.5828323
  57.0012522 101.4443111  52.2917318  57.9799557 102.5215721  51.8762255
  67.6826715  83.7998390  60.5097485  67.6481485  83.3176517  61.3359070
  68.5266447  84.2509460  60.5307961  56.5694904  99.3281269  90.8520031
  56.9013739  98.9667797  90.0301075  57.3457003  99.6747684  91.2919807
  20.4468513  17.4592125  55.7332563  20.9282351  16.6547108  55.9263372
  19.8696458  17.5797701  56.4872694 101.4431763  89.3320751  33.9952493
 101.8587303  89.0700626  33.1737304 102.1740150  89.5115566  34.5867658
  16.9055390   6.2373304  44.7319078  16.9177949   7.0814526  45.1830626
  16.2944794   5.7033110  45.2395105  24.8229647   7.9045588  44.0515232
  24.1429377   7.6768398  44.6855116  25.1867938   8.7283027  44.3760347
 103.7776279   2.3337936  38.3141732 103.4360313   2.3569235  37.4203014
 104.3385983   1.5585111  38.3362198  89.4956017  85.4582024  62.6749706
  88.8560772  85.1225090  62.0468426  90.0862408  84.7215652  62.8322935
  64.4860220 105.4157829  46.6347313  63.6198187 105.0761700  46.8596506
  64.9590540 105.4353142  47.4666500  84.2851067  82.8724098  59.3820190
  85.1271057  82.4172497  59.3723011  84.4695282  83.7081051  59.8107719
  23.2700968  50.4491234  89.8439121  23.9494634  50.7961035  89.2657280
  22.5349712  51.0531473  89.7391415  18.4384930   7.3367596  67.3392248
  17.5954330   7.7696204  67.2046375  18.6774671   7.5528109  68.2405806
   2.7837589   7.5410235  76.3010693   3.0685779   7.0377105  77.0638180
   1.8322833   7.5943440  76.3909721  86.2436676  99.9221134  59.5949984
  86.3225746  99.9836826  58.6430454  85.4946136 100.4780388  59.8096991
  54.8673964  63.7261963   4.1756150  54.8189640  64.6168566   3.8283214
  54.7535133  63.1638432   3.4094402   9.6001142  76.1041689  46.0967779
   9.4814038  75.1860046  45.8536482  10.4365897  76.3502932  45.7018518
  78.6950970  77.5673103  75.5179596  77.8370094  77.1577024  75.4077959
  79.0334320  77.1987677  76.3340092  56.2346125   2.1741048  79.2635393
  56.1148357   3.0037338  79.7257137  56.9059134   1.7139859  79.7674036
  79.9561071  94.0876770  12.3973787  80.2088070  93.3122826  11.8962443
  79.0028620  94.1237640  12.3183334  67.6402903  48.0041981  29.4826508
  68.2069731  47.6791811  30.1822686  66.7702436  47.6735592  29.7060823
  42.4374342  36.0629702   7.7491200  42.4826431  35.3423595   8.3775383
  42.6084518  35.6526041   6.9014263 100.0788307  20.3694820  44.2877340
 101.0256195  20.5100322  44.2964554  99.9778080  19.4272208  44.1529322
 106.1720848  16.6357291  30.5627394 106.3334465  16.3573277  29.6612501
 105.9618187  17.5668550  30.4918623  17.2261655  10.5134809  78.3727455
  17.5072503  10.0821030  79.1796780  16.3086915  10.2596533  78.2725286
 113.1113911  99.1619492  71.1885118 113.1399345  98.7772369  70.3124952
 113.1764221 100.1050377  71.0381699  23.7316775  61.3486624  14.9662149
  23.3134365  62.2055960  15.0496852  23.0092168  60.7455349  14.7915196
  32.3607993  16.0510778  87.7485752  32.8288817  15.3573072  88.2131386
  32.9657054  16.3291276  87.0608234  32.6492023  48.1932783   7.7263522
  33.5428119  47.9792166   7.9944378  32.6461554  49.1468143   7.6427066
  93.5286045  85.1320744  53.5043240  93.8693237  85.4995251  52.6887751
  93.3363628  85.8953476  54.0490198  34.7052550  35.1969981   9.9547911
  34.2615318  35.8992171  10.4304266  34.8778558  35.5662155   9.0886962
  62.4006081  28.4674931  11.3045776  61.6278982  27.9088855  11.3889122
  62.3463583  29.0654945  12.0500183  91.8955612  89.7988224  51.3656855
  92.5218868  89.7500801  50.6434822  92.3161507  90.3688622  52.0094156
   6.4724422  83.7984848  77.0386982   6.2814140  83.7568951  76.1016750
   5.7546133  84.3136692  77.4068451  32.6952219   9.7120333  80.3705883
  33.1461382  10.5532527  80.2980804  33.3926558   9.0598720  80.3034782
  58.0347633  82.8623295  33.1795335  58.4231043  82.0482922  33.5001040
  57.1676254  82.8895473  33.5839581  31.7986250  28.4193206  64.6709776
  31.6950798  28.7519336  65.5625391  30.9179783  28.4564018  64.2977190
  74.9001837  74.8066330  81.3184452  75.7018566  74.9441910  81.8230534
  74.2546606  74.5246410  81.9665241  78.3680439  98.9006233  91.7384624
  79.2717409  99.0155315  92.0323277  77.8480291  98.9427471  92.5409794
 105.3169727  78.0042791  68.9134455 105.4172039  77.1800327  69.3896818
 106.0708237  78.5293722  69.1822004   5.1495391  19.5015156  80.2089214
   5.7406795  20.1231694  80.6335831   4.3499416  19.5343316  80.7340908
  74.7623491 103.4370899  66.0551310  74.0190315 103.2305717  66.6217518
  75.2796745 102.6319599  66.0357189  10.2954924   0.6205297  43.9149332
   9.7132093  -0.1292841  43.7926340   9.7901100   1.2312391  44.4514561
  70.5131435  89.8586655  85.5100727  70.0137997  90.4671192  86.0547447
  70.9276915  89.2631912  86.1344051  53.0424356  65.7066298   9.7120941
  52.8813934  65.4232597  10.6120920  52.1787882  65.9516716   9.3799746
  42.2472334  33.8507676  81.0288906  42.8006935  34.4267082  80.5014420
  41.3564444  34.1626883  80.8694267  22.8441119   4.2155117  50.5601978
  23.6732841   3.7432399  50.6354618  22.2936010   3.6483723  50.0202656
  72.3139143  94.2612839  27.7455735  72.0831728  94.4879436  28.6464667
  73.1948853  94.6164608  27.6273680 114.0565866   2.8203160  70.9459829
 113.1780274   2.8413346  71.3253546 114.1605931   1.9219753  70.6323004
  74.3394375  84.2226219  79.0620184  73.9261675  84.3770409  78.2125521
  75.0475121  84.8653316  79.1042614  38.2641530  18.4086013  86.8680668
  38.7778687  18.0252719  86.1571598  38.3164310  19.3527174  86.7192554
 108.5442638   2.8631571  72.3723650 107.7802372   3.4302524  72.2679567
 108.4883404   2.2487986  71.6404724  16.4613831  32.6576519  71.7638779
  17.2667086  32.1463132  71.6850519  15.7703340  32.0025778  71.8616533
 112.8023243  73.0933428  39.7090054 112.9786110  73.9322472  40.1349163
 112.7720547  73.3006096  38.7750053  66.9875574 104.2267609  35.0316930
  66.7995977 105.1569080  35.1571369  67.7297974 104.0522289  35.6103563
  13.4107602   4.6074519  53.7140560  14.2571712   5.0119078  53.5236979
  12.8042090   5.0207812  53.0996561  49.1250038   6.9743079  83.9975452
  48.6041641   7.7635491  83.8490200  48.4782600   6.2755275  84.0958500
  55.4772425  83.6681461  87.7240372  55.6089926  82.7688503  88.0242634
  56.1067533  84.1836357  88.2282352  99.3544102  90.9960365  88.1480408
  98.7783337  90.7266712  87.4326229  99.3743706  91.9514275  88.0926991
   5.4237914 102.4089050  70.7059383   5.6604201 102.3854828  71.6331339
   5.2626044 101.4936447  70.4766941  72.6555824  87.6952267  79.3243790
  72.2342968  88.1704426  78.6081934  73.1854773  88.3555508  79.7709417
  53.9377499  13.9999771  61.9567251  54.4342375  13.1861508  61.8706036
  53.0405807  13.7587416  61.7262363  73.2083654  96.0984230  63.7524891
  73.4070444  96.3589382  64.6518755  72.8585720  95.2109718  63.8319111
  64.8222780  93.1475449  45.6513119  63.9064693  93.4180641  45.7172585
  65.1812077  93.3021641  46.5250921  84.8678112  78.2564020  91.5337181
  84.7113419  77.3457670  91.7837143  85.4898739  78.5801315  92.1852303
  84.5714951  82.5092793  75.9952497  84.3954277  83.4324455  75.8136082
  84.9462223  82.1722889  75.1814651 111.1667061  52.9448032  35.5325556
 110.7062054  53.6428833  35.0668883 112.0793724  53.2325983  35.5537605
 108.9427280  94.8820019  66.9582081 108.7583828  94.9518967  67.8948879
 108.2095242  95.3294182  66.5357637  17.0169771  16.4558053  74.6633625
  16.8625534  16.7526400  75.5601740  17.0198858  15.5005574  74.7243977
  20.4325628   6.4134181  58.8108683  21.3825774   6.4254224  58.9273167
  20.2202702   7.2876316  58.4838915  17.6700318   0.1038767  77.6158524
  17.3326409  -0.6140005  77.0800829  16.9069123   0.6568962  77.7833319
   5.4708070   2.9741439  74.5054054   6.1709487   3.2827792  75.0805378
   5.9274620   2.5912029  73.7563705  60.8558178  75.0702143   7.1501231
  60.6607151  74.1344213   7.1997112  61.7164326  75.1574898   7.5599504
  11.0841727  12.1961439  52.3411417  10.3321457  12.7304459  52.0857763
  11.7651379  12.4228048  51.7077827  31.0856867  36.1664057  23.6211753
  30.7616377  36.6988802  24.3476009  30.3248906  35.6592607  23.3379340
  23.7785721  17.5918567  75.2940130  23.5394692  17.2198498  74.4450903
  24.0136337  18.4992826  75.1002264  19.4915712  13.4390068  14.6270406
  19.6138418  13.1266201  15.5235326  19.2569709  14.3618405  14.7248721
  89.5003510  94.8698330   9.1869575  89.9039555  94.8519707  10.0547206
  88.7956810  95.5130959   9.2637509  21.2416959  24.6061897   5.3343016
  21.2176108  24.1957998   6.1987275  22.1734428  24.6655226   5.1232123
  64.4539356  55.8135319  18.2545364  65.1911688  55.8557701  18.8635838
  63.6824417  55.7437849  18.8168168  95.6987858  86.1822701  78.1072235
  94.8560143  85.7284451  78.1098175  96.0771084  85.9897900  78.9651585
   6.3010573   6.5970999  81.8604374   6.7241669   6.4694750  82.7095127
   6.5580553   5.8310801  81.3472176   9.8831409 102.6562214  72.5528097
   9.9637634 103.5656357  72.8403568  10.6093383 102.5330353  71.9415045
  21.1624217   7.9806942  29.6991205  20.8864331   7.1023494  29.9609852
  20.4300046   8.5454124  29.9458838  35.2699089  37.5031066   0.4037492
  35.4230714  38.1274700   1.1129346  34.4159937  37.1191812   0.6029023
   3.6835489  22.1811390  82.7582359   3.7926382  23.0457187  82.3622131
   2.7436826  22.1111917  82.9255390  50.5642080  83.5241604  70.9244967
  50.8463287  84.4382191  70.8907032  49.6112776  83.5703278  71.0021114
  49.1297531  96.8350410  72.1205521  49.2494965  95.9559155  71.7613363
  49.2579603  97.4187946  71.3728666  97.7907372  91.0377598  64.1492748
  97.1859264  91.5169048  64.7157288  97.3901081  90.1744652  64.0470266
  36.7088255  -0.3531196  56.1940908  37.4698576   0.0222370  56.6369963
  36.1735472   0.4035256  55.9549475  89.0428066  81.8548775  58.4518528
  89.4612122  80.9948635  58.4125805  88.3996582  81.8409252  57.7430487
  74.5876122  76.8454790  93.0680943  73.8906670  76.7578125  92.4178505
  75.1294279  76.0660410  92.9450226 112.8304482 101.5942860  68.8681984
 112.8460693 102.1555042  68.0929422 111.9962311 101.1285305  68.8099432
 108.0490589   7.1576637  43.3371449 107.8204632   7.0908695  42.4100447
 107.7210903   6.3457686  43.7237930 104.9912930  92.5740242  38.5056305
 105.0880337  91.6307831  38.6366987 105.8621979  92.8695107  38.2402134
   9.0084243  22.5774646  36.4312148   9.2410082  22.8726792  35.5508828
   9.0491259  21.6223907  36.3821125  79.6797037  98.5629177  57.9288244
  79.7504759  98.9968586  57.0785809  80.0861168  99.1734505  58.5438919
  61.2577677  56.7779112   5.5690771  61.2277555  57.7230549   5.4206431
  62.0832682  56.4993000   5.1726484  26.3301730   6.0040998  71.6584635
  25.6012535   6.2913632  71.1085653  27.1130633   6.2785763  71.1809969
  68.1496048  87.9766083  57.0483160  68.5097504  87.7186394  56.1997986
  68.1145000  87.1628094  57.5510263 105.8235550  65.9983587  11.8317235
 105.2295113  65.3744888  11.4144301 105.3725624  66.2578821  12.6351428
 104.5752430  93.0600834  66.6372538 104.1125488  93.1366158  67.4716902
 104.5862579  92.1204948  66.4547873  66.8255568  99.4817066  60.6269884
  67.6280069  99.8371506  61.0090494  66.2577915  99.3107891  61.3784218
  95.8625126  97.5298691  28.9969587  96.8125439  97.6436329  29.0238500
  95.5488777  98.2599449  28.4632397  34.1045022 100.4169750  53.9503002
  34.7581506 100.1178265  54.5823479  33.4562349 100.8828163  54.4784737
 108.7061214 103.4196472  70.8493519 109.5805550 103.0312920  70.8771276
 108.7681675 104.1018677  70.1808023 108.9615059 105.1419926  64.2301798
 108.8999367 104.1867733  64.2302752 109.8884487 105.3222656  64.3867111
  27.7260971   6.9518667  61.5457201  27.1910048   7.6604861  61.1882734
  27.3271179   6.1530703  61.2007952  43.8644171  19.5543289  60.8964443
  44.2912149  18.9627695  61.5162277  43.3004904  18.9857078  60.3721476
  96.4834499 104.9432278  42.0991707  96.6978836 105.8744526  42.1545124
  96.4471626 104.7611904  41.1601400  16.6261125   6.5855443  81.7057514
  16.7184436   7.1336687  82.4850273  17.0252442   5.7509077  81.9513321
  79.2844820   6.2479401  54.1108274  79.7017956   7.0823824  53.8968468
  78.4539795   6.4931333  54.5187187   8.1006521   6.7965662  63.1781054
   8.9785576   6.7725122  62.7974033   8.2354075   7.1141005  64.0709925
 101.3154984  91.9132996  55.9058475 100.6758881  91.2300396  56.1065722
 101.0283566  92.6684475  56.4191914  29.9068689  63.8882256   4.3671486
  30.6043172  63.3927917   4.7965011  30.1907253  63.9608622   3.4558967
  44.8493481  23.7198377  56.1576080  45.0018311  22.9799986  56.7455006
  44.4548655  24.3909740  56.7145538  88.8373089  98.0934048  79.2075443
  89.0396881  98.1317139  78.2727671  89.6874142  97.9782104  79.6321249
  24.1738391  31.0520053  65.7434416  23.4188104  31.0718107  65.1554155
  24.3201399  30.1215792  65.9141350 100.5828571  55.3371906  56.1201143
 100.2396107  55.9335804  55.4547310 101.3744164  54.9696779  55.7269287
 102.9894257  75.8583832  69.7951889 102.8910065  75.0519419  70.3013515
 103.4618473  75.5903244  69.0070295  62.4666357  15.8536589  31.1315465
  62.5299025  15.7471049  32.0806909  62.7746201  16.7453671  30.9695792
   9.9956876  92.3303032  60.0978374  10.1069343  92.1422100  61.0297585
   9.4521618  93.1179047  60.0756693  21.0470390   4.8686442  39.6137476
  20.4279375   5.1169169  40.3002644  20.9758234   5.5670083  38.9630175
 111.5358734  70.5440569  20.7675052 112.3474121  70.0853682  20.9848309
 111.3655663  70.3102446  19.8550582 111.6001511 106.6614532  59.0927744
 112.1389389 106.1946774  58.4539795 111.0863972 107.2762966  58.5690784
 100.1035690  99.4108677  56.3387489 100.9779167  99.6536827  56.6433477
 100.2586174  98.9228630  55.5300188  16.3737655  24.5190763  72.6124954
  16.4501905  23.5680485  72.6895237  16.7845583  24.7251439  71.7728424
  39.4333410   4.2971691  32.3191047  39.5079446   3.9812014  33.2195663
  39.2701721   5.2362055  32.4075246  34.5114756  50.9160376  11.1770761
  34.9153900  50.3004646  10.5653918  34.0807295  51.5620613  10.6173110
   0.7196759   9.8868084  83.2678890   0.4091331   9.0245748  82.9915810
   1.0525864  10.2897727  82.4660015  80.3820896  34.2473912  80.4330349
  80.8379459  33.5823321  79.9171591  80.6257343  35.0772452  80.0228977
  57.3068905   2.0784128  47.7094793  56.5057468   1.6510370  47.4065733
  57.8788185   2.0867057  46.9419765   7.8603625  98.6136055  53.1071091
   8.2093471  99.3350601  52.5837183   8.0196446  98.8764381  54.0136337
  44.4156218  94.6217346  66.3985348  44.7147989  94.9542809  65.5522871
  44.4778967  95.3740311  66.9870949  10.2773821  15.4657018  70.2694988
  10.9753251  14.8107278  70.2587128  10.2986646  15.8528221  69.3943357
  50.6536627  15.8793271  33.6252379  50.9768534  16.2318873  32.7960944
  49.8377514  16.3535500  33.7853503  40.4222584  14.1853714  43.5713816
  40.9121895  13.3889961  43.3664751  40.9995842  14.6784413  44.1543102
  15.9452868  77.5875521  14.9999464  16.3161576  76.7092991  14.9141240
  15.0328100  77.4898672  14.7277784  82.6318836  97.7832699  49.4963789
  82.4430180  97.6703835  48.5648108  81.8062401  97.5775051  49.9348021
  34.9689245 107.1098423  50.7165718  34.0946102 107.3325539  50.3968763
  34.8282981 106.8241501  51.6192579   2.6442322   0.2987635  53.2904959
   3.0887771   0.9827575  53.7912607   2.7524048   0.5623060  52.3766708
  38.9858985  16.4726758  70.5511236  39.8393083  16.3360739  70.9625483
  38.6163688  17.2266269  71.0107279   4.7884426 103.2641983  80.7869530
   5.0346959 103.0403709  81.6844463   4.0448630 103.8591194  80.8838940
  30.7207394  28.9967728  76.1702347  30.2060318  29.6114135  75.6472397
  31.3279867  28.6005640  75.5453348  22.3854160 104.2490768  90.2994728
  23.2654786 104.3850899  90.6505013  22.4780202 103.5073090  89.7016048
 105.4548168  63.2972813  50.7970953 106.1747837  63.2998943  50.1663303
 105.3078365  64.2218399  50.9966278  16.4769554  76.6914606  66.0185862
  16.2246168  75.9403706  66.5556335  17.3642945  76.9049406  66.3071871
 100.5432987  95.9770775  73.7276602 100.2089787  95.1260662  74.0109348
 101.4730167  95.8248615  73.5582876  36.3462257   9.0349543  81.5881538
  36.6627288   8.4515089  82.2778225  36.1559057   9.8575968  82.0390034
  65.0935364  28.0880237  79.2081499  65.2073717  28.9775848  79.5427465
  65.1319408  28.1833410  78.2564831  21.5506601   5.2119827  85.9694958
  22.2227716   5.3319156  86.6404057  20.7854390   5.6740582  86.3117790
  44.0829134  24.8332357  51.1299324  45.0025511  25.0325537  51.3053560
  43.9483643  23.9665008  51.5132046  23.4297919   5.1073205  45.3501701
  22.7092791   5.7243919  45.2224398  23.7372327   5.2790111  46.2402439
   6.7081130  65.7636356  53.5098839   6.7240119  66.6692924  53.8193464
   7.6186633  65.5709028  53.2863140  23.4491706  92.4952412  64.8140574
  23.6917734  92.5616455  65.7376194  22.8346443  93.2159138  64.6754265
   1.8420747  73.5110140  80.9960365   2.3220816  73.9492655  81.6987228
   1.1615361  73.0108929  81.4465714  56.4689827  21.9964719  39.7990847
  56.8729305  22.5268936  40.4858971  56.5196896  22.5419712  39.0141702
  85.3054848 107.0154648  83.5791969  85.3176603 107.9025957  83.2199097
  84.4727781 106.6483058  83.2824993   2.9932487  89.6546555  43.5146856
   2.3031974  90.2628899  43.7794685   2.8744107  88.8948250  44.0845633
  54.0587378  53.8108397   9.3489563  53.9503288  53.1518841   8.6632037
  54.3537998  54.5938826   8.8841838  48.6894941  14.9052405  69.2189169
  48.5448265  14.1899025  68.5995674  48.2014656  15.6423068  68.8517761
  28.8485837   3.5770699   8.2281125  29.7382927   3.2296628   8.1652206
  28.4859180   3.4673369   7.3490983 101.6806221  75.8274126  47.3359203
 102.6271439  75.9049273  47.4555349 101.5785599  75.1542568  46.6631031
 109.6124268  97.8277588  59.3017006 109.1943073  98.4154987  58.6724377
 110.4123783  97.5375462  58.8634396  40.3107834  16.7349231  31.1159015
  40.9823465  17.4153423  31.0682511  40.7081842  15.9758723  30.6891108
  89.8157692   6.4247906  65.1599312  89.8338890   6.5251017  64.2081738
  89.9549675   7.3098946  65.4967499  12.6472163  21.9745564  57.6161242
  12.9870164  21.9688845  58.5109615  12.4492216  21.0568833  57.4292898
 105.9826851 104.8648453  49.0176678 105.8915997 105.4097176  48.2359743
 105.1321983 104.9258995  49.4526100  69.4615507  19.5544493  37.3289323
  70.1721001  18.9139974  37.3631263  69.6347094  20.0622010  36.5361929
  72.4841833   3.2300046  43.3077097  73.2644844   2.9055870  42.8581381
  72.8001595   3.9612874  43.8383818  24.6605587  53.8631821  45.6274223
  24.8691654  53.0079746  45.2514744  25.1900768  53.9105034  46.4234161
 103.0876732  14.3500459  19.5915961 102.5996113  14.4795179  20.4047775
 103.9094830  13.9441931  19.8675287  84.5364094 103.2349491  69.3598557
  83.6370945 103.2246590  69.6875191  84.7796059 104.1607285  69.3567181
  56.8350124  14.8955441  59.3749619  56.5798855  15.8069694  59.5179462
  57.0579576  14.8522925  58.4450912  47.1237183  31.8090129  56.9555759
  46.4211416  31.5993428  56.3402224  46.9084549  32.6851463  57.2753954
  27.7355456  40.3206396  82.1651077  28.1229448  39.9454784  81.3742733
  27.7414584  39.6028996  82.7983856  31.9272685   5.6859463  62.2616863
  31.7912245   5.0277781  61.5801191  32.2158599   5.1847672  63.0244255
  95.0026512 105.2057743  59.3967247  94.6507645 105.4866219  58.5520172
  95.2331448 104.2859364  59.2662859  23.6466670  76.8075085  78.4212828
  24.3956375  76.3153172  78.0850887  23.8008332  76.8637657  79.3643093
  35.7709360   5.5945700  55.4277706  36.3174152   6.1900777  54.9149704
  36.3942957   5.0178581  55.8694220  63.2545710  65.0346375  17.0844543
  63.1984949  65.0765324  16.1298168  63.9039755  65.6987715  17.3156095
  31.0251260  35.9030271  49.4509315  31.9288802  35.6284404  49.6060562
  30.8094597  36.4534307  50.2037764  11.7287660  60.0072718  49.2055559
  10.9031045  59.6513700  49.5339584  11.8639231  59.5647192  48.3676338
  20.5659580   0.9990897  46.2662697  20.6065536   0.0454334  46.3378477
  20.0861764   1.2776178  47.0463085  93.9242840  76.7129135  63.5812616
  93.9066219  77.2896910  62.8175545  93.0158234  76.6851854  63.8815212
  60.0217915   2.6719093  69.4786882  60.2941704   3.5812134  69.6020079
  59.8833704   2.5892067  68.5351658 104.8762035 101.8387604  75.6944370
 105.8123875 101.9756985  75.5493736 104.5607853 102.6774883  76.0309935
  44.1865683   2.5676781  72.7550554  43.5840178   1.8445481  72.9289722
  44.7667360   2.5843528  73.5162115  55.8888340  19.3481064  39.5013857
  54.9421644  19.3734860  39.6407008  56.1903334  20.2232909  39.7450662
  14.4452310 106.1900711  64.9229670  14.3297672 107.0802402  65.2553797
  15.0746107 105.7900715  65.5230570  49.3565369  78.4812498   9.9121004
  48.8709784  77.7815247   9.4752401  48.7472677  79.2192364   9.9320358
 107.4768320 106.7203694  79.0085316 107.7506223 107.6372856  78.9854002
 108.1424609 106.2850155  79.5411110  88.3260822  88.3412361  72.7077818
  88.5932159  89.2556763  72.6146173  89.1404057  87.8445148  72.6279545
   6.2363619  74.5789766  39.9845839   5.9319288  74.1832495  40.8012581
   6.5333253  75.4529333  40.2380419  38.3888149   3.8682550  64.3102789
  37.9769421   3.1266323  63.8668966  39.3209624   3.6511627  64.3245649
  40.8483601  13.5854149  62.4332237  41.3861179  13.3215773  63.1798410
  39.9630046  13.6584592  62.7896500  17.2156048  19.2378676  53.9177513
  17.9797459  18.8146114  53.5263729  16.9314241  18.6328936  54.6029377
  23.1427503  23.1829286  36.1633134  24.0862966  23.0525899  36.2579799
  22.7519155  22.5504422  36.7661762  96.4212894  40.5510283   0.2645116
  97.2019863  41.0162401   0.5650654  96.6902828  40.1364040  -0.5552217
  48.4281015  24.3804622  16.7078161  49.1737366  23.7834573  16.6458154
  48.1937265  24.5661902  15.7985282 105.9625244   1.7654179  56.8087578
 106.7333031   1.8934613  56.2558174 105.4299641   1.1277766  56.3333464
  24.0650034   9.6523458  25.0832152  23.5094929  10.1480269  24.4815993
  24.4362116  10.3140974  25.6667566  19.6201265 104.2461681  58.2317924
  18.6959958 104.0014839  58.2802200  19.6618414 105.1077175  58.6467838
  36.7443824   1.7820685  63.7164831  36.3263416   1.4877830  62.9072428
  37.2897625   1.0433053  63.9867067  12.4648559  92.5024986  52.5238276
  12.9023898  92.4492836  53.3735132  12.5222659  93.4269524  52.2823429
 109.1494656 101.8246555  55.9321547 108.8666153 102.6016331  56.4143705
 108.8766670 101.9903564  55.0297356  48.1796169  31.0821128  49.2038441
  48.0507946  30.1503468  49.0265036  47.6090622  31.5264034  48.5767031
  41.3875628   8.3764839  41.7138720  41.2973261   7.7210766  41.0221148
  41.2636089   9.2142344  41.2677336  83.1090832 103.2778072  29.6080852
  83.9038277 103.3811474  30.1314783  82.4657249 103.8433170  30.0353074
  47.8248501   2.8121808  69.2950106  48.2372427   3.6669996  69.4193077
  47.1260309   2.9733008  68.6610365  66.2910891  19.0427828  58.4025097
  65.7351589  18.6348295  57.7386236  66.0776234  19.9746144  58.3539915
   2.4193306  32.8727841  43.1487751   3.2514599  33.0033731  43.6034584
   2.1774848  33.7447715  42.8367186  53.8321304   5.6146270  35.2855110
  54.5055294   6.2680191  35.4748392  53.0306864   5.9816086  35.6586647
  39.3473029  37.9874873  76.6983128  39.2981195  38.6490297  76.0082579
  38.5564184  38.1257582  77.2194767  55.5229759  31.0825658  63.2304955
  55.2880669  31.0210776  64.1563797  56.0755777  30.3171730  63.0722570
  42.7453089  16.9612825  54.3207312  43.2159901  17.5247860  54.9348640
  43.4182930  16.3821971  53.9629841  70.9247351  34.4730473  67.1574354
  71.8180656  34.7718835  66.9874620  70.7736254  33.7874889  66.5067387
  30.6449938  13.5214269  65.9618616  30.9547281  14.3974400  65.7318640
  29.9411201  13.3447170  65.3377104  40.8911085   3.9860460  70.0068665
  40.6100941   3.4397218  70.7408905  40.1395464   4.5509541  69.8272514
  22.0751595   2.4196297  48.4271193  21.8955016   2.3993777  47.4871492
  22.3464894   1.5263388  48.6384106  51.1244059  27.1095586  61.0050678
  51.1298990  28.0563760  61.1455488  51.3275576  26.7388201  61.8638515
   6.1014998 103.9529800  19.5547950   6.5190423 104.2425919  18.7436140
   5.2048218 103.7370014  19.2987597  78.1505728  19.3961668  49.9107409
  78.4663963  19.7357714  49.0733910  78.8797569  19.5337999  50.5153751
  21.8221521  96.8126488  41.9379520  22.1413112  96.5971756  42.8142738
  21.9517207  97.7579594  41.8615866  58.0444384  22.8154230  72.9705381
  57.7457142  23.6910582  72.7250671  57.2921133  22.4205112  73.4113169
  47.4510431  58.3856869  27.2783828  47.6980639  59.2338562  27.6469326
  48.1220341  58.2061481  26.6197753  24.8049450   6.5876549  84.6896172
  24.4641089   7.4814272  84.7247124  24.3660951   6.1933941  83.9358234
  49.3773031  15.1059067  62.7118874  48.6688566  14.5024443  62.9358673
  49.5095968  15.6249523  63.5051870  35.4277253   6.6935807  44.0079117
  36.3377357   6.9861895  43.9579821  35.4495096   5.9437770  44.6025133
  22.1358609  23.8727951  54.1984081  21.3355136  24.3171382  54.4781160
  22.4293256  23.3965063  54.9751043  10.3722942  82.4498653  53.3340645
  11.1002839  82.8114128  53.8395834  10.0438881  83.1902599  52.8239584
  55.1084709  36.3958812  59.0708637  54.9316454  35.6531668  58.4935093
  55.0761271  37.1598554  58.4950781  51.5271521   8.4046966  55.0233030
  51.5672493   9.2754912  55.4187059  51.9273138   8.5146534  54.1607428
  54.8679209  20.7170892  67.8257656  54.4813776  21.2356830  67.1201658
  55.6624460  20.3456163  67.4424028 101.8746948  85.9223652  55.2269650
 101.6195583  85.2895451  54.5556402 102.5284100  85.4624081  55.7535887
  49.1885853   0.7001157  77.9756165  48.3289242   1.0561153  77.7509499
  49.6728516   1.4472765  78.3269978  14.5641935   0.1682466   2.2867930
  13.7332213   0.6429146   2.3069821  14.6896493  -0.0558968   1.3647020
 102.2287083  95.7514381  66.9286966 101.7051315  96.5420437  66.7981005
 101.8570137  95.3445911  67.7113533  35.6013823  22.5841284  68.7351274
  35.4507899  23.0290651  67.9011106  35.6980681  23.2931876  69.3708324
  56.2141800  21.0051465  64.7256851  56.2491894  21.0844159  63.7724161
  57.1300364  21.0352325  65.0023222  28.7819457   2.8208512  60.8355904
  27.8812194   2.6662594  61.1202383  29.3008161   2.1829990  61.3256407
  96.9137192  92.4128819  68.3567715  97.4959564  91.9985771  68.9936209
  97.3908234  93.1901836  68.0662584  36.8212199  65.0392914  37.8800583
  37.0160818  65.5829239  37.1166945  36.0172296  65.4127455  38.2411146
  16.5217388  19.7805822  63.8888931  16.2834156  19.5430970  64.7850132
  16.0555446  20.6006384  63.7263966  20.2920604  45.4008722  35.9164476
  20.8177042  44.6430111  35.6603599  19.3916154  45.0762653  35.9240723
  14.8176122  16.3296127  65.0064802  14.0151548  15.8185720  64.9009705
  15.5150294  15.6751311  65.0451374  52.3218203  15.0453472  58.4046316
  52.1626091  15.9595585  58.1698895  53.2691240  14.9376762  58.3194637
  62.3171663  53.2270241   7.5684875  61.8708372  52.4376774   7.8750080
  61.9743395  53.9270544   8.1240559  40.7708168  -0.1778880  45.8781004
  39.9992681   0.2764516  45.5396938  41.4547920   0.4915368  45.8949089
  14.3946850  35.9796214  30.2104831  13.7537599  35.9106088  30.9180737
  13.9594603  35.5866313  29.4539309  54.9123430  26.1227012  41.8346357
  55.3633690  26.9604897  41.7301559  54.9863625  25.7023549  40.9778643
  98.8582897 106.0360241  64.5151949  98.5171795 106.8383694  64.9102974
  99.8071957 106.1609077  64.5005512  51.4794827  26.7013526  16.3300395
  51.3881922  27.1158028  17.1880198  51.6921854  25.7889342  16.5262079
  22.0045590 102.8226376  45.0357914  21.2402964 102.2510529  45.1094246
  22.0733523 103.2422256  45.8933735  39.2569613   8.0183846  82.0881271
  38.5591221   8.5373449  82.4880409  38.8312912   7.1992445  81.8350506
  30.7003450   3.2990405  78.5681677  30.4623628   2.6611775  77.8953218
  31.3526964   2.8489220  79.1048813  60.3960800   4.2509523  49.2387390
  60.6070995   4.2039856  50.1712084  59.4478130   4.3790382  49.2139196
 113.3417797  24.5281076  39.7731209 113.6494064  24.2968082  38.8967085
 112.5717258  25.0756288  39.6199179  37.6258755  11.2642467  79.9633884
  38.4997916  11.6194546  79.8011160  37.7609658  10.3193688  80.0354195
  65.7223988   6.3229656  67.9248381  66.0006571   7.2140747  67.7133512
  65.1582384   6.4238119  68.6915112  27.3527646  94.7173595  60.2372837
  28.1037164  95.3074551  60.3011703  27.6566982  94.0026379  59.6777916
  88.5755920  10.4627836  65.7705402  89.2932224  10.1773453  66.3360119
  88.7862778  11.3716459  65.5565023  52.2164297  24.0915179  39.1185522
  51.8127823  24.9261880  38.8805938  53.0098009  24.0483427  38.5847640
 104.1091919   6.7417586  82.6971054 103.3496094   6.7935717  83.2772636
 103.7845325   6.2919480  81.9170380  36.3652539  37.1204877  66.1895466
  36.9014883  37.5200415  65.5046749  36.3873243  37.7509928  66.9094133
   2.0397076 102.7581120  47.8566790   1.9560853 102.1818542  48.6163902
   2.0542075 103.6409950  48.2261992 104.8729801  97.5210953  26.0046673
 104.3651867  98.2951641  26.2479758 104.8107243  97.4840832  25.0502110
  10.9602630 104.7242165  61.0739040  11.3304019 105.2475071  61.7848206
  11.6998982 104.5561886  60.4900074  29.5932364  86.4527512  25.5923891
  30.1625180  87.0449734  26.0837436  29.3552923  85.7720661  26.2218976
  32.5387168   8.8599491  43.3953667  31.6067576   8.6600095  43.4831667
  32.6046467   9.3356693  42.5673723  47.7733088   0.9271158  48.2257271
  48.1774521   1.6874065  48.6438847  46.8545914   0.9678669  48.4913063
  44.0981579  56.3890791  54.6527529  44.9164629  56.0380030  54.3015432
  44.3733215  56.9966269  55.3393364  36.1473966  32.2756219  44.3985271
  35.2585006  32.2401166  44.7518492  36.0260201  32.3638868  43.4531689
 100.5812454  48.4714317  88.3560562 100.2161312  47.6012182  88.5162067
 100.1228809  49.0409184  88.9739799  50.0159264   0.7608863  81.2153912
  50.6457138   0.9396216  80.5170631  50.5532074   0.4819545  81.9568443
   8.7404495   8.4321946  35.3592587   9.5564711   8.9025909  35.5297518
   8.5231006   8.0189991  36.1948800   2.6167187  97.8991890  34.4062996
   3.1855422  98.2920647  35.0683546   1.8033794  97.7068996  34.8729229
  43.0237627  19.9602044  50.5103970  43.8884592  19.6305263  50.7550287
  42.4380970  19.2138362  50.6375313   6.4728838  16.5659046  35.0197387
   6.2219429  17.4470735  35.2968740   6.8315220  16.6844761  34.1402221
  61.4696693  45.8728790  29.8152280  60.7135439  45.6826115  30.3704786
  62.1215105  45.2181816  30.0656533  70.9783125  26.9661045  51.1574745
  70.3228283  26.2971187  50.9599209  71.3029194  26.7338276  52.0274830
 103.0994701  94.5062256  44.6941757 103.4532166  94.7321415  45.5544472
 102.2878361  95.0094891  44.6292686   9.9711889  19.1416514  32.4461007
   9.6988428  18.6157167  31.6941357   9.4753802  19.9559987  32.3609877
  49.8193979  12.0411527  53.4807825  49.9399567  12.6421046  54.2160034
  50.7050848  11.7545271  53.2579994  27.0455766  64.5242453  56.2842703
  26.5499592  64.3439436  57.0830727  27.9621220  64.4381714  56.5465069
   7.7807045 104.5230389  57.7902031   7.9533589 104.4944572  58.7312698
   8.3142871 105.2507019  57.4707890 110.3670597  36.6447186  85.3847122
 110.2907562  36.5903306  86.3373184 110.8392334  37.4625778  85.2285576
  24.9094677  98.4607029  45.2745771  24.5126009  99.1629982  45.7898521
  25.1537251  98.8782883  44.4486284  98.5390186  95.9574699  66.9224977
  99.1684246  96.6777229  66.9588661  98.1673431  96.0084248  66.0418797
  46.0567617  28.5943604  55.6488323  46.6352940  28.2546067  56.3315487
  46.4234400  29.4506311  55.4284286  79.1425419 101.8416023  25.7140875
  79.0122461 102.6269913  26.2455201  78.3723068 101.8056870  25.1469159
  52.8281164  16.3703918  49.6061707  53.0405331  15.5724502  50.0903177
  53.6544800  16.6308343  49.1993189  20.7388330 105.1968288  44.6900558
  20.2311730 105.2343559  45.5006790  21.1570525 104.3360424  44.7089958
 102.5990295  85.6806564  71.7308378 102.0096588  86.3839245  72.0033836
 102.2480011  84.8967552  72.1533442  38.0422497  45.9793520  71.1909914
  38.7066603  46.0649014  71.8747091  38.5325241  45.7160139  70.4121971
 109.2066574 102.5058746  78.6789036 108.7914181 101.7229080  78.3172607
 109.5607090 102.9631996  77.9161930  62.4577808  13.1961727  70.3301096
  62.7698040  13.9387059  69.8128891  62.1155787  13.5901606  71.1325455
  48.5251904  11.4837122  47.4101448  48.6952925  11.2375188  46.5009212
  49.1282558  12.2075868  47.5791121  21.1500239  82.0354271  37.2976208
  21.5928221  82.8174782  36.9681358  20.6690049  81.6965389  36.5426302
  43.5324669   9.7349632  72.8123283  42.8644371  10.0411260  73.4257030
  43.4596109   8.7808204  72.8354645  11.1034691  96.6306210  53.8481283
  10.4308701  96.6374207  53.1671047  10.6470108  96.3263607  54.6325445
  23.8492513  93.6325264  53.1410599  23.2565951  93.0579853  53.6257124
  24.7214365  93.2785892  53.3149767  41.8824148  33.6444736  69.1842508
  41.4784670  33.6008096  68.3175611  41.6104221  34.4934607  69.5327759
  41.4497328  36.0661721  66.2755346  42.2138119  36.6390109  66.2101936
  40.7756329  36.6113734  66.6812229  62.7249718   4.4539854  41.7859888
  62.4143457   4.3434086  42.6846075  62.3716068   3.6988190  41.3157892
  34.4924331   7.1375465  36.6630769  34.3064880   7.9476005  37.1379113
  35.3344631   6.8439138  37.0109224 106.4522552   3.3209261  90.5525494
 107.1528435   3.9699054  90.4874897 106.1549664   3.3796161  91.4605141
  30.3310394 105.6256866  60.3668976  30.8417106 106.2326050  59.8310947
  29.4993567 105.5368233  59.9014521  51.0375595  20.0587177  77.9736185
  50.9777832  19.4619274  77.2276306  51.8845177  20.4916883  77.8666973
  36.7384315   2.2854371  25.9778929  36.9926643   3.1845856  25.7702184
  36.1955786   2.0130728  25.2380538  82.5673866  31.2489057  88.7829399
  81.8854904  30.5796599  88.8409138  82.2697830  31.9454002  89.3682289
 102.2165585  97.3645020  79.2696285 102.7827072  97.9558277  79.7656488
 101.3354874  97.7182102  79.3913937  11.7262006  15.1208377  59.8323345
  12.4792850  14.5405793  59.9436665  11.3444388  14.8596847  58.9943075
  15.7686245  35.0562596  63.0381584  16.3886654  34.7735167  63.7103510
  15.8781040  34.4222665  62.3294306  21.9416881  95.5507469  64.2116404
  22.2126436  96.1031532  64.9448967  22.7610254  95.2091217  63.8535833
 112.3605824  23.7279177  50.2902174 112.9617023  23.0801034  49.9224854
 112.5282574  23.7026501  51.2322760  52.0167017  89.3350601  92.3399925
  52.5922728  88.5703278  92.3514557  51.5292692  89.2557049  91.5200233
  61.1007833   4.1903853  51.8324900  60.2815723   4.6419525  52.0354986
  61.0698128   3.3905300  52.3573732  96.2304688  83.2707596  23.9039874
  95.5783176  83.9212799  24.1642761  96.7833805  83.7265682  23.2693505
  60.5239582  26.2344956  52.4348402  61.2539101  25.9774995  51.8715000
  60.4618311  27.1837139  52.3282719  68.1249762  30.9466219  41.7691231
  67.9017448  31.0878587  42.6891518  68.8306284  30.3002191  41.7903805
  47.7893782  17.4318290  68.3866215  48.0354643  18.2704604  68.7769651
  46.8753338  17.3076844  68.6422491  41.3184071  10.6363273  47.5038195
  41.0139370  11.0641122  46.7034912  41.1161327   9.7100592  47.3721313
  16.2287450  93.7019539  55.9857845  16.0095024  93.3600044  56.8525219
  16.0815001  94.6451378  56.0561419  13.6873424  16.1910522  27.9311037
  14.1582668  16.0622752  28.7544370  14.3744683  16.2312222  27.2659159
 110.7427025  31.8802047  63.7909222 111.5102959  31.4634681  64.1825390
 110.8545017  32.8122282  63.9781809  11.6851246  85.6722450  43.4965038
  10.7335246  85.6995010  43.3967781  12.0091486  86.3326359  42.8840303
  12.5225079  14.3507969  78.6330414  12.1801674  15.2072203  78.8891172
  13.2628822  14.5503640  78.0601072  53.2706118   1.4104758  73.6511183
  53.0278063   2.2451741  74.0518141  53.9765930   1.6325818  73.0440855
  46.3389015  29.7249699  52.7727556  45.7233715  28.9922428  52.7943325
  47.0799828  29.4002461  52.2612953  41.9410276  17.5893915  51.2631464
  42.6215601  16.9970465  51.5828848  41.1358643  17.2721946  51.6722059
  92.9671478  42.9991436  16.7621601  92.1961212  43.3892918  16.3504148
  93.7078094  43.4624720  16.3710392  40.1155901  12.5758624  80.2355576
  40.8270216  12.2926486  79.6612024  40.4692221  12.4802601  81.1198902
  41.6764736   6.9239545  72.9240561  41.3247347   7.3506755  72.1427584
  42.4345732   6.4325309  72.6077938  -0.0473162  19.1580427  27.6732373
  -0.4867269  19.3304849  28.5059500   0.8857799  19.1819489  27.8853488
  48.6037016  34.4422650  88.7909985  48.5774994  34.4380975  89.7478294
  48.4013844  35.3462100  88.5497856 100.7822895  81.3344860  49.3185377
 100.4202271  81.9201088  49.9835110 100.3109360  81.5617180  48.5170221
 100.5069065  85.8224678  65.9108829 101.3528252  85.4959583  65.6042099
 100.0241566  86.0262680  65.1098537  51.5918446  10.2208686  67.8078890
  52.3970079  10.7363403  67.8551531  51.0475349  10.6846619  67.1716070
  16.3191879 104.5752335  75.6184626  16.1420548 103.6355209  75.5761480
  15.7455194 104.9572468  74.9542284  32.5050259   9.1402638  47.6147795
  31.9430280   9.5734334  46.9723225  32.9577374   8.4596574  47.1167231
  40.6079865  36.5078139  26.6534591  41.0946655  37.2347832  27.0419049
  40.9278345  35.7321429  27.1141791  96.4078712 102.6266003  65.2252197
  96.8774605 103.0397224  65.9498215  95.7634640 103.2802677  64.9537611
  28.4737492  14.1300118  61.7231464  28.0642343  13.2664895  61.6696739
  29.0915227  14.1477931  60.9922075  26.8067145   4.7021407  63.3178949
  26.9645882   5.5797350  63.6659431  27.4627638   4.1527596  63.7468624
  33.2025838  52.8419733  20.7289910  33.5227752  52.3920584  21.5108371
  32.2497058  52.7701664  20.7846761   2.3121764  11.1956000  81.1194801
   2.0565416  12.1006775  81.2975788   3.1091663  11.2706661  80.5946922
  31.4911842  33.6481237  74.7400522  32.4301553  33.7811518  74.6101713
  31.0961485  33.8973188  73.9045382  42.6378965  14.1144419  55.3875303
  42.8178740  14.7527206  56.0777760  43.0587769  14.4787002  54.6088076
  36.0957861  15.2029753  41.2422657  36.0016179  14.6461689  40.4693937
  35.3678370  15.8215868  41.1819220  65.0915098  16.6010535  62.8330231
  65.8468723  17.0735943  62.4832058  65.4287577  16.1496007  63.6067724
 109.4002247  71.6457272  31.3841343 108.6918545  72.2087288  31.0719442
 108.9730930  71.0331059  31.9828725  94.3224335 101.3770294  57.2346687
  95.0852776 101.7480087  56.7912006  93.5761166 101.6659260  56.7095184
 105.7855835 107.2258029  61.2741375 105.5230918 107.0185937  62.1710205
 105.3372589 106.5729883  60.7364845  43.9959574  18.3013797  66.9130278
  43.7595558  18.5432446  66.0175705  44.4283342  19.0794265  67.2650576
   5.3613240  92.4436283  77.2226429   5.6728435  93.3484173  77.2459936
   4.4079569  92.5195026  77.1830797  83.5817623  96.0903358  79.8062372
  84.3060112  96.2734509  79.2077732  83.0972958  95.3799534  79.3856716
   5.5484569 100.9213066  50.8125305   4.9774733 101.6542053  50.5821514
   6.4327073 101.2411118  50.6334782  89.5744038  34.2623878  60.5426025
  89.0473175  33.9936233  61.2950516  89.3336010  35.1771235  60.3959656
  29.3421173  98.1885052  63.7519932  29.8012996  99.0149784  63.9013767
  29.6412086  97.9008484  62.8894234  70.9520292  54.5176220  30.3530073
  71.2820864  54.2386675  29.4989133  70.2002096  53.9482784  30.5168533
  51.4912939  29.5476770  80.0685596  51.0108376  28.9726877  80.6641960
  52.4130630  29.3671894  80.2529430  35.8635569  99.5258427  37.6690340
  36.5147161  98.9839363  37.2234321  35.1106644  99.5302582  37.0779634
  64.2092228  81.9380283   7.1695310  64.2165089  82.8940868   7.2156370
  63.7851381  81.7417526   6.3341516  31.5931535  26.1493874  48.2430744
  31.5278625  25.9799838  49.1829014  32.4474502  26.5670753  48.1337738
  90.6595707  94.5127773  58.4495497  91.2738323  94.0855598  59.0465355
  90.7662487  95.4477310  58.6248350  31.4226031   3.7649113  87.3836803
  32.3775530   3.7112901  87.4214554  31.1238623   3.2464227  88.1307793
   5.5471998  11.6726458  44.1805363   5.0762099  10.9200478  43.8227701
   6.4321959  11.3461578  44.3430758   1.9643028  18.8413334  41.2310457
   1.8351027  18.8682091  42.1791029   1.4370234  18.0979693  40.9384394
  46.1143494  20.2019238  56.7415428  46.5132380  20.2963257  55.8765507
  45.2134991  19.9328649  56.5618038  41.5505934  98.6706257  18.7031209
  41.6734838  97.7257538  18.7944281  41.2381315  98.7859058  17.8057301
  54.5116711  30.8924913  76.7142773  53.9139318  30.1580787  76.8541908
  54.7064161  30.8676767  75.7774258  88.1678677 101.8379593  65.8265305
  88.1462193 100.9681892  65.4274511  88.8479233 101.7768288  66.4973593
  30.1323581  21.3130450  78.2048082  30.1874065  20.3746772  78.0240679
  29.2448020  21.5560484  77.9413223  32.7034640  12.0396519  61.0355043
  32.3873115  12.9040539  61.2983465  32.8032017  11.5607274  61.8582535
  39.6819448  19.5467234  58.3828497  38.9476919  19.4049966  57.7853394
  39.6435547  18.8070381  58.9891672  26.3643932  90.5921173  91.9259262
  26.2804055  90.9369183  92.8149128  27.1571231  91.0046387  91.5829372
  77.9946423  99.1955948  66.4734125  77.4904585  98.3829308  66.4333725
  78.1261778  99.3500137  67.4088717  70.9899235  17.1089792  37.0724010
  71.9361448  17.2358394  37.0031261  70.7632685  16.5761387  36.3102055
  42.1109438  24.3783331  19.6122015  41.6285706  25.1385832  19.2872918
  41.4382458  23.7141371  19.7623825  75.0009632  53.6370516  25.0100732
  75.2216291  52.7361631  25.2465796  74.1488695  53.5697126  24.5792222
  58.9433098  23.9671063  47.1684980  57.9908752  23.8977861  47.1029425
  59.1778803  23.3754039  47.8834057  53.0474997  16.1822391  41.6560411
  52.9811764  15.3319430  41.2214947  53.9855433  16.3036513  41.8028879
  25.4105544  91.0298061  59.1031361  25.0981855  90.3170872  58.5457420
  26.3361788  91.1222458  58.8775063  54.9923706   1.3042615  46.6067410
  54.7359276   0.6746296  45.9329224  55.0420666   2.1416047  46.1456347
  26.9358683  54.2107582  42.3982096  26.3004017  53.5504627  42.6746559
  27.4620676  54.3788385  43.1799364 104.2432213  76.1630821   5.7825142
 104.0393257  76.8783855   6.3850069 103.5220814  76.1671686   5.1530933
 101.3526821  84.2756939  52.8008604 102.2782803  84.2924786  52.5575066
 100.9933376  85.0824738  52.4318027  47.3628235  22.2773170  78.1977510
  47.6344538  23.1418419  78.5060501  46.4266014  22.3693299  78.0209637
  82.0876789   9.5106930  47.0016479  82.6417637   8.9705604  46.4381981
  81.3564301   8.9395899  47.2369051  37.6722002  10.6593919  14.4415152
  37.9010010   9.8558015  14.9085522  37.1093011  10.3676379  13.7243986
  65.9164953   0.8631622  56.1455011  66.6092014   0.2414937  56.3689184
  66.2150002   1.2727359  55.3334808  44.7560406  10.9541738  78.6306047
  44.9441862  10.1897192  78.0861378  43.9680147  11.3356888  78.2437086
  17.1588767  40.7005548  53.2227135  17.1975970  41.5270329  53.7040281
  16.4219248  40.8078861  52.6213694 108.0976868 102.7051926  67.5504398
 108.6673546 102.6717472  66.7819357 107.4669647 101.9986153  67.4119663
  32.0907021   5.7380664  67.2310686  31.8240619   6.4057148  67.8630352
  31.7917466   4.9131498  67.6136541  88.6237144  97.3649788  35.6373978
  89.4069481  97.0473289  36.0867071  88.3901691  96.6587448  35.0349712
   2.8862303  93.6732864  19.7864115   2.9757068  94.5268726  20.2102232
   3.4249136  93.0853367  20.3159070 101.6710186  14.4582188  47.0999193
 101.4920044  15.3560901  46.8206024 101.4949226  14.4604623  48.0407763
  74.3994713  56.9011259  34.7666526  74.4257116  56.3097239  34.0144634
  73.9483261  57.6807308  34.4427443  53.3846807  20.9256792  47.4628496
  54.1525841  21.2105227  46.9674540  53.2921982  19.9973774  47.2485209
  93.1124115  86.1167526  31.3399982  93.7542915  85.7431316  30.7361579
  93.2594395  85.6517792  32.1636558  73.8951111  19.0907609  62.8960276
  73.3410406  19.6960640  62.4032354  74.1918516  18.4541750  62.2456932
  26.3996625  13.9792967  89.4155407  27.0775199  14.4548821  88.9353752
  26.8142509  13.7445068  90.2457333   6.1081171   7.5523585  61.3311005
   6.7633289   7.0859325  61.8501139   6.0447598   7.0505828  60.5184269
  58.0877209  31.0962105  61.5420628  58.6440897  30.4896665  62.0307255
  57.6807165  30.5555010  60.8651495  40.4336643  12.5230968  83.0416012
  40.6991386  11.9128072  83.7295723  39.5115328  12.7035093  83.2242298
  52.4554157  11.7051744  44.6786499  53.3127356  11.7573869  44.2561483
  52.5005245  12.3423398  45.3915405  49.3335485  25.8350945  70.9216404
  49.7647333  25.5103302  71.7121077  49.7522593  25.3561425  70.2064323
  32.0983052 104.0302753  28.8440299  31.1705971 103.9378452  29.0609241
  32.1627760 103.7334728  27.9362941  32.4323297  25.2503228  67.2577572
  33.3717179  25.0675893  67.2775412  32.2496390  25.4667807  66.3434267
  23.0025792  14.0371811  45.1526594  23.7671995  14.5540977  44.8989153
  22.9798698  14.0961111  46.1077738 105.3071022 104.8451424  81.5624428
 105.5791283 104.0159512  81.1691570 104.3746567 104.7291565  81.7449760
  29.3656540  37.1449995  39.4251895  29.6097422  36.3120246  39.8286819
  28.5914612  36.9395137  38.9011312  67.0355988  16.5293241  58.6509466
  66.9229937  17.4480808  58.4071493  66.8468046  16.0435951  57.8480387
  11.9520473  16.0782444  53.0552292  12.2307312  15.3711617  53.6371279
  12.7670455  16.4248216  52.6920605  72.4292612  21.4051270   1.9638287
  72.1405697  21.4021158   2.8764516  72.6952124  22.3098779   1.7997326
  48.9701223   5.3257674  69.8565245  48.4788752   6.0821170  69.5358276
  49.7998238   5.6915545  70.1631594  47.2712374  13.9868057  39.1243362
  46.3785315  13.7186110  39.3419862  47.4731588  14.6797574  39.7530484
  58.8051224 106.4203358  62.4650145  59.7418022 106.4801884  62.6528454
  58.5903597 105.4987335  62.6090860  68.8946867  10.2102685  43.7714005
  68.3474541  10.2423942  44.5560884  69.6800375  10.7043195  44.0067053
  15.3179264  29.7037101  22.0641303  15.0594139  28.8022184  22.2557402
  15.6743884  29.6671462  21.1765313   1.5305944 104.0960789  37.6992846
   0.7973554 103.6225033  38.0921125   2.2732699 103.4976959  37.7805281
  84.5287228  20.2109027  55.5031300  84.5923996  19.8262203  56.3773155
  84.6772766  19.4768488  54.9070358  14.6934927  94.5937634  74.1757870
  14.7130561  93.9876270  73.4352207  13.8150370  94.4950581  74.5429468
  85.1695156   5.1241714  63.7844610  85.2571964   6.0287124  63.4838772
  84.4518185   5.1505649  64.4172621  22.2345376  71.7634583  38.0913162
  21.5648389  72.3915100  38.3620358  22.8641462  71.7590094  38.8122916
  52.9705906  34.6220613  62.2354317  53.8440609  34.5717216  61.8471670
  52.5656509  35.3814840  61.8164682  47.6855898  27.6426649  57.8873205
  47.8294516  27.8781676  58.8038778  48.4266329  28.0299330  57.4213696
  32.5587392  24.1574502  37.8151774  32.5028992  23.2567143  37.4961376
  31.6817546  24.3485403  38.1477690  57.3769045  45.1037025  52.8047180
  57.2050095  44.1621065  52.7959681  57.3894548  45.3362656  53.7331486
  60.6337404  22.1080089  59.6243286  61.1793947  21.3222694  59.5910835
  60.9373760  22.5777793  60.4010868  69.7950840  33.2516599  63.4693241
  69.1821480  33.8642049  63.8759232  70.5689287  33.2781696  64.0320826
  48.2142258  21.7531633  36.8054914  48.0576324  20.8138561  36.7084694
  48.6497164  22.0086336  35.9922791  48.5367346  28.4062338  65.5489540
  48.7183189  27.6280093  65.0220537  48.4710503  28.0782771  66.4458132
  91.7871284  18.2258618  46.6682863  92.3453426  18.8571715  46.2143278
  91.7126751  18.5688925  47.5588036  51.1315441  33.6335301  55.6126118
  51.6313076  34.4108534  55.3631306  50.5009317  33.5160136  54.9021530
  58.9852858   1.7778619  38.2134223  59.3726969   1.9898781  37.3641920
  58.4091425   2.5177807  38.4052801  41.9902182  22.1165514  56.6800737
  41.3398838  21.8271399  57.3200274  42.4929953  22.7904797  57.1375322
  65.2783871  36.7162776  32.7329516  65.9114981  36.0989952  32.3663902
  64.6830320  36.9074321  32.0082164  34.0256691   6.2078375  34.2085528
  33.1112289   5.9482515  34.0961003  34.0655494   6.5664655  35.0951338
  21.0375094  98.7213516  45.9206200  20.7926559  99.6253014  45.7227325
  20.2297425  98.3187199  46.2394047   3.3780935  89.3229771  37.5824833
   2.5243360  88.9211369  37.4216962   4.0107417  88.6600876  37.3057771
  41.0708380  11.5773666  57.3287106  41.2018633  12.0236945  58.1652832
  40.6323576  10.7585907  57.5601721  47.5645161  15.7881260  42.9961061
  47.7731371  14.8668468  43.1508780  47.9172611  16.2451196  43.7596273
  53.9465332  34.3952417  67.1726942  54.7310781  34.9318457  67.0596886
  53.2546282  35.0232983  67.3801804  24.3551540 106.9074535  71.6394281
  24.6245694 107.7679062  71.3180494  24.2082858 107.0369530  72.5763893
 113.6177635 102.7630234  60.9283876 112.8830242 102.6447678  60.3263903
 114.3750954 102.4233532  60.4516172  92.7463436  25.1933241  62.3948479
  92.4507523  25.9696174  62.8704834  92.7742767  24.5028305  63.0571699
  74.4471312  13.3149505  66.3259459  74.4205618  12.4720240  66.7787170
  73.7518978  13.8292515  66.7362785  63.7706900  16.8334830  66.1721373
  63.6782551  17.7676857  66.3590956  64.6697998  16.7400348  65.8573389
  15.2490366  24.4466019  80.0215816  15.4445732  25.3658223  79.8398352
  16.1020851  24.0126681  80.0060844  55.2645731  25.2496386  66.1177206
  55.7977629  24.5076919  65.8323240  55.8421564  25.7529879  66.6915369
  34.1535163  40.4001617  78.5849524  33.7341905  41.0483456  78.0190468
  34.5631671  40.9171009  79.2786312  46.3748455  43.1682825  54.8031521
  47.1823502  43.3361959  54.3173885  45.9244347  44.0127563  54.8182917
  93.5785294  24.8903894  75.6917334  93.0698395  24.1444850  75.3737783
  94.2871761  24.4973063  76.2011862  19.3162572  41.4597845  48.4776640
  19.2280710  40.7541847  49.1184282  20.2445364  41.6918993  48.5032320
 112.9402161 107.0879269  51.4727449 113.7478828 107.5765228  51.6314650
 113.0981445 106.2297916  51.8663168  33.6471653  44.4925451  53.5107899
  33.6583829  43.9258289  52.7394676  34.4167304  44.2270422  54.0142822
  40.4062176  30.8955765  54.2639828  40.5752802  30.8884978  53.3218575
  41.0596991  30.2990031  54.6290731  79.3054771  12.5044060  62.5851727
  79.1181898  11.9437182  63.3380222  80.2490234  12.6589763  62.6304913
  38.1405020  45.4800415  80.2957630  38.1884146  44.7731400  79.6521568
  39.0259480  45.8428860  80.3193665  46.3247871  41.3405514  38.4487867
  46.6300631  40.7004642  37.8058767  46.8046284  41.1244822  39.2483473
  55.4340792  35.7238603  44.0382433  55.4115868  36.0474801  44.9387980
  55.4485750  36.5150595  43.4997034  41.6977119  48.6600351  77.9131603
  41.9079256  49.3132448  77.2458029  41.8628979  49.1050911  78.7443495
  67.2350407  29.6177197  65.4420376  66.7782593  30.4571342  65.3875828
  67.9010630  29.7507834  66.1165333  45.3909254  41.0055780  73.3232021
  46.1821461  41.3919306  72.9477930  44.6798849  41.3332033  72.7724648
  53.2264280  29.3967986  25.2439046  52.6580763  29.4031262  24.4737315
  54.1140842  29.4241714  24.8867559  31.8480325  37.0015430  62.7129841
  31.9355989  37.5770736  61.9531584  32.7463937  36.8618011  63.0123997
  60.5559254  27.7696395  62.1429968  60.9417391  28.2869077  61.4360237
  60.1083231  28.4123588  62.6932669  26.2018275  48.8798618  85.0331306
  26.6273069  48.0279875  84.9355984  25.4479647  48.8398361  84.4446373
  54.5941877  44.3679905  30.4578924  55.4611826  43.9736795  30.5531192
  54.7368765  45.1264000  29.8915982  96.6669846  59.9486732   8.2657301
  96.7038918  60.4606867   7.4578238  95.7882881  59.5690536   8.2687819
  69.3988562  23.6223078  26.4946151  70.0059509  23.8808584  25.8012056
  68.5308313  23.7913966  26.1283159  69.0488482  55.0969172  36.4981318
  69.7878075  55.6274080  36.2002277  68.3063745  55.7010317  36.5017533
  47.6472998  33.5120726  36.3380814  46.9122171  33.5923576  35.7302642
  47.3916674  34.0404177  37.0942140  33.3962488   0.8380575  74.1716242
  32.7320695   0.5488116  73.5459757  33.8708949   1.5316612  73.7135220
  46.3018322  19.9548662  70.2804756  46.3574409  20.1851463  71.2078953
  45.4336739  19.5638239  70.1824236  32.9236674  14.1154754  53.6595440
  32.0490193  13.8613057  53.9538574  33.5181594  13.5793078  54.1842699
  43.7412167  30.7644773  77.4840832  44.5378208  31.2705708  77.6438284
  43.0284452  31.3835311  77.6420832  27.9535365  10.1268005  23.1123734
  27.0810676  10.2737713  22.7470899  28.2779479   9.3519855  22.6534057
  31.4388037  35.7353902  43.0473375  31.0388994  35.7711887  42.1784115
  31.9712615  36.5291595  43.0988312  57.1119928  28.7991095  48.6291027
  56.5248346  28.1261253  48.9734411  56.5862894  29.5990276  48.6302710
  19.4587052  17.9410899  53.1268549  19.9363971  17.9108918  53.9557886
  19.9243915  17.3266661  52.5595331  28.4835100  26.4915442  36.7784309
  27.5690913  26.2194371  36.8560672  28.9797997  25.7833838  37.1888447
  42.2265768  63.8161182  24.7462153  42.3465586  63.0364704  24.2040133
  42.7461958  63.6440420  25.5314660  68.6255503  33.3481026  30.1642346
  69.2241716  34.0941548  30.1283193  68.8252497  32.9206657  30.9970927
  46.5791082   0.4948023  40.5610895  47.4381018   0.1650690  40.8249712
  46.2542725   0.9605452  41.3316727  45.8812428   7.4056143  65.1043558
  46.7741251   7.1141297  64.9198914  45.3530216   7.0144427  64.4085073
  53.6197948  29.5133924  35.1808810  54.5714045  29.5340824  35.2820802
  53.3050299  29.0664768  35.9666419  45.4099751   6.8372053  50.7546902
  44.8154402   7.3427248  51.3089561  45.6543779   7.4405563  50.0529337
  26.1105704  23.0084777  28.2572865  25.3572655  23.3285069  28.7536192
  25.7568312  22.8007221  27.3924518  62.8105736  16.3939738  43.6655617
  63.1528378  16.0291529  42.8494787  63.5422993  16.3348258  44.2798185
  43.4136868  11.6307616  54.8513079  42.6319885  11.0907984  54.9680328
  43.1879044  12.4692607  55.2540159  35.9012055  51.9464779  70.4898310
  35.7285714  52.4837828  69.7166967  36.8042684  52.1546316  70.7293797
  54.0469503  23.3999038  37.1003461  53.9048862  23.9037514  36.2989807
  54.9008274  23.6924577  37.4189973  32.5965190  67.6414728  66.1164093
  33.1570745  66.8761921  66.2443113  32.9297900  68.2889891  66.7376089
   8.1908965  98.6267948   6.5277982   7.3818928  99.1368294   6.5678960
   8.8885790  99.2812252   6.5622610  76.2841797   0.5687309  83.9876080
  75.7844400   0.2736119  83.2264233  77.0122766   1.0677218  83.6173153
 102.5397778   7.1809143  74.1547680 103.0098820   6.4044869  74.4587278
 101.6209698   6.9960231  74.3492842  35.2349973  23.0818558  52.5127840
  34.7898650  22.2592068  52.7160978  35.7762814  22.8790879  51.7498064
  71.0773849  19.6256876  55.9342194  70.2854586  19.0905499  55.8821249
  71.3276911  19.7724855  55.0220633  33.7907648  11.7138636  50.8788776
  34.2359710  11.1312592  50.2635717  33.2125115  12.2443640  50.3307676
  41.9731998  55.1819229  83.0450344  42.8636122  55.2794600  83.3825016
  41.9384193  55.7670546  82.2883034 104.5660114  93.1417465   1.2711284
 104.6525669  93.7726688   0.5565087 103.8441372  92.5733566   1.0026839
 100.7129383  14.4056940  63.2518625 101.6648865  14.3753612  63.1564426
 100.5175114  15.3290558  63.4113789  78.3215237  23.3294368  57.6418352
  78.3104372  23.6393976  58.5473919  78.4661341  22.3859334  57.7133846
  47.0044184  38.1062055  63.2607555  46.9244051  37.2700953  63.7198305
  47.6844215  38.5788846  63.7407637  59.1750336   6.5019703  78.5295343
  58.6685658   6.1610180  77.7923250  60.0656366   6.5871960  78.1892538
  68.4546661   8.7490606  84.3521881  68.9288998   7.9631054  84.0808678
  67.8287458   8.9070582  83.6454391  13.4858179  56.7856359  92.2757339
  13.1445217  56.3175488  93.0377388  13.1478250  56.2985277  91.5242577
  32.2658610  23.8449979  50.1262426  31.8336272  24.4885159  50.6877470
  32.0434093  22.9994202  50.5157900  62.4527788  23.7377453  55.1888657
  62.4953461  23.9091039  54.2480898  61.7581129  24.3147635  55.5062294
  60.1375580  12.8924000  57.3320484  59.3565512  12.3395133  57.3079586
  60.8510208  12.3106551  57.0697975  37.1548700  97.7344799  35.8360076
  36.9804764  98.1058884  34.9712133  38.0682397  97.4510670  35.7952023
  19.2213070  76.8983126  -0.0678110  19.5371759  76.2135553   0.5217393
  18.3042359  77.0211792   0.1773714  27.4796152 103.9705372  88.4188557
  28.1002903 103.8397598  87.7019978  27.4948120 104.9139977  88.5797119
  54.1254854  13.7808549  64.9129963  54.9338102  14.1124916  64.5220184
  54.0536404  12.8829503  64.5892096  37.2051716  43.1536484  63.3993387
  37.4575686  43.8725758  62.8199673  37.0403600  43.5731411  64.2437887
  59.6474886  10.3589022  40.5941248  59.3277597  10.5182421  41.4821672
  59.6810579  11.2270188  40.1922798  52.6894999  37.9112983  66.0930586
  53.5501385  38.2494950  66.3403559  52.4203205  38.4581113  65.3549767
  48.0278015  33.0276370  63.5799646  47.9344130  32.1077561  63.3323145
  48.8315201  33.3123708  63.1449938  63.5938549  13.8476670  47.5665522
  63.6301565  12.9397857  47.2654486  64.2325735  13.8896906  48.2782412
  96.5246105   5.3638071  60.5607986  95.8334827   5.1381069  61.1833906
  96.0836220   5.8899236  59.8937464  78.0886698  82.7628708   0.8837466
  77.9327917  83.1368351   0.0165180  79.0294170  82.8692055   1.0248706
  32.3169446  47.1933985  36.6843462  31.4374924  47.2545338  36.3114405
  32.6345348  46.3333797  36.4091516  27.8685546  44.6894741  64.0724993
  27.5529456  45.4422283  64.5724821  27.6724267  43.9343405  64.6270561
  37.2904778  21.7204976  89.4954586  37.1728802  22.2355413  88.6972523
  38.0610704  22.1024585  89.9156094  60.7730484  14.3995464  47.7821779
  61.7258215  14.4891298  47.8029060  60.4872990  15.0320101  47.1229601
  50.4723072  15.0597334  54.2523861  49.9460220  15.6438029  54.7983885
  50.2071047  15.2660978  53.3561087  62.5405979  32.6099753  65.0145960
  61.7501926  33.0664754  64.7263288  63.1146812  33.3050060  65.3364658
  37.3996520   1.6915853  60.5595779  36.5890932   1.3533455  60.9401274
  37.6523519   1.0343332  59.9111986  37.0897245  46.0252237  67.7186251
  37.3304653  45.2053785  67.2871971  37.7691054  46.1562872  68.3800602
  54.2461205  28.7106681  83.6486053  54.1053581  27.7641058  83.6696053
  54.7551870  28.8946843  84.4380474 109.4379425 107.2143745  20.3855085
 109.0890217 106.9530678  21.2376857 108.6787224 107.2046947  19.8026538
  55.0250578  37.0488930  46.4272165  55.0296211  38.0018616  46.5170050
  54.8624897  36.7256021  47.3133802  63.1800699  23.6511636  50.7156134
  63.3309126  24.5549679  50.9924173  63.2635689  23.1375194  51.5190029
  78.4909248  71.0813522   0.8813427  78.2206202  70.2181625   0.5681755
  78.8800621  71.5030527   0.1152006  55.9340096  18.5812628  45.2124739
  56.5418482  18.8535917  45.8999300  55.6230259  19.4013441  44.8290825
  87.7843285  16.5159106  51.4925146  87.5550556  17.0679498  50.7449055
  88.6990166  16.2771058  51.3423204  72.1040010  36.1611629  79.5181990
  71.6218424  36.8947244  79.1365719  72.8055906  35.9838200  78.8916588
  61.3848066  34.3294954  39.4769883  62.0387745  33.6440945  39.3399310
  61.0528040  34.5225382  38.6002111  66.6966486  39.6322083  80.7678223
  66.0910892  39.3002772  80.1049805  67.4667692  39.9091959  80.2714157
  90.9812355  14.4696176  73.0096674  91.7807293  14.6165478  73.5150957
  91.0252857  13.5481715  72.7542686  54.8779917  27.2427607  78.7812471
  54.9174261  27.9304051  78.1165552  55.7544661  26.8580294  78.7801456
  32.2711110  56.8063402  70.3864908  31.8556428  57.5623846  70.8012390
  33.1887603  56.8610430  70.6532526   8.7738794  50.0066376  34.7911835
   9.5410156  50.5728102  34.7064376   8.9719695  49.2505884  34.2385674
  43.9874983  40.9964752  65.5878401  43.4096003  40.9688425  66.3503981
  44.7957850  40.5783415  65.8845949  49.7795534  23.7095642  65.6723213
  49.5348597  22.8643584  66.0491323  50.5644321  23.5237861  65.1568699
  40.4557991  17.5292790  73.3619976  40.0009155  18.2266009  73.8342810
  40.8343506  17.9647231  72.5982428  64.0152597  81.1293316  16.7315984
  64.0543699  81.1389542  15.7752466  64.5335627  81.8879223  17.0001554
  30.6936073   7.8997117  73.6632347  31.4614272   7.3367763  73.5643005
  30.0574183   7.3573107  74.1293859  62.8383875  19.5323730  73.2130766
  62.8839302  19.5709836  74.1684103  63.2921553  20.3224134  72.9195356
  25.2741432  33.5779881  47.8479099  25.3104520  34.4853663  48.1505299
  24.9520135  33.0862713  48.6033440  59.7635460  22.5260186  49.4187164
  59.5077801  21.6195941  49.2478085  59.5817995  22.6547003  50.3496504
  85.0110531  16.1397350  67.9607105  84.5901775  16.4882350  67.1748066
  85.9041882  16.4822638  67.9260159  71.1809587  26.0828280  66.9616079
  71.4976549  26.6292930  66.2423658  71.0405016  26.6951895  67.6837730
  32.8765845  97.8987408  52.9681253  33.4625196  98.6452007  53.0934715
  32.2424245  98.1987476  52.3169231  55.3637171  25.2233672  53.4560728
  55.2742147  25.3566098  54.3997145  56.3013268  25.3186345  53.2885981
  38.3468246  91.2333679  67.1068096  39.2731094  91.0944748  66.9094896
  38.3306313  92.0365238  67.6273012  49.2840481  31.7030597  78.0123949
  49.2821026  31.6291738  78.9667368  49.3921566  32.6392627  77.8448677
  52.6976109  33.7947941  20.8384562  52.6370239  34.2255044  21.6911268
  52.0002127  33.1392765  20.8511496  71.9353390  28.8510346  57.6938200
  71.4636469  28.6817241  56.8783045  71.4963627  29.6136808  58.0705166
  15.0925684 106.0634327  73.7818766  14.6710980 106.1294651  72.9250002
  15.2920103 106.9685459  74.0210819  64.5819998  15.2799439  40.9444761
  63.7317657  14.9091792  40.7081127  65.0658321  14.5465803  41.3243628
 105.7090664 107.0986748  47.5612688 106.4888000 107.3275185  47.0554304
 105.0340748 106.9387913  46.9016790  63.7679911  22.2809505  26.5727925
  64.0705156  22.0107532  27.4398017  62.8674030  21.9605327  26.5227485
  19.5189691   9.8127800  55.2545214  19.7972369   9.2776281  54.5112801
  19.8623908  10.6855214  55.0631666  57.7753162  53.0120087  24.1284943
  57.7201128  53.2102013  25.0633240  57.0420265  53.4882402  23.7389803
  46.2064552   7.6640356  38.6194563  46.7299891   8.0577111  39.3174267
  46.8298817   7.5117552  37.9092574  34.7333002  30.4202604  67.5427675
  34.8948407  30.6015563  66.6168785  35.5646300  30.0745368  67.8677273
  33.1083417  39.4483685  40.3752804  33.8312674  39.8245382  39.8731780
  33.0417490  38.5468340  40.0605869  35.0190735  17.2966969  69.8690081
  35.3169870  18.1200230  69.4822073  35.5276561  17.2131526  70.6756020
  49.1633797  41.4265633  92.0305061  49.5500898  42.0903254  91.4594460
  49.5463800  40.6015396  91.7323780  40.4062462  47.0984125  75.8272362
  40.5741692  47.6586914  75.0695229  41.0015440  47.4239349  76.5024328
  52.5658846  42.0010710  54.7448492  52.9496956  41.1631012  54.4865417
  53.3068371  42.6065731  54.7690535  51.1786270  35.4478192  60.2721786
  51.5925884  34.7254229  59.7999382  51.4731741  36.2342501  59.8128271
  34.5187759  34.3065810  62.0318890  33.6997294  33.8732791  62.2719860
  34.4787788  34.3830562  61.0785913  67.5344658   7.1951550  40.7968903
  67.2369480   7.3251426  41.6973448  66.8058443   6.7482549  40.3660536
  86.2286568  13.1256878  68.8605547  85.8700180  13.9315891  68.4888887
  86.5909863  13.3921289  69.7055101  12.1322417  11.1564136  60.4752731
  11.8848503  11.0874772  61.3973761  11.9658542  10.2845967  60.1168299
  17.4401355  37.0480609  85.4992199  17.1811187  36.3393331  84.9102783
  16.6396046  37.5566459  85.6285381  25.4269433 105.7682800  61.5457201
  24.5620561 105.6951237  61.9492674  25.4968286 106.6892338  61.2943411
  71.6353512  13.4469962  53.6618853  70.7758236  13.1095779  53.4097052
  71.6614389  13.3486593  54.6136618  61.5622377   9.0836078  84.5130062
  61.6748381   8.9089173  85.4473686  61.1024427   8.3133554  84.1790390
  82.9365349  92.3214054   9.4164807  83.7892818  91.9053841   9.2900985
  82.9091454  93.0161858   8.7586290  64.2864275  34.5017767  66.2817001
  64.4771957  35.1359129  66.9728661  64.6734190  34.8828864  65.4935217
  37.0761967  11.6939390  57.1285486  37.3654079  12.2999704  57.8106880
  36.2639761  11.3194358  57.4695396  69.5417213  11.5938842  65.6502914
  69.8539686  10.7689071  66.0219717  70.0251818  11.6848266  64.8291779
  37.9014730  56.2660217  14.9078476  37.3467779  55.4998446  14.7611523
  37.9832196  56.3238001  15.8597994  55.0356293  33.2888675  46.6330528
  54.5385170  33.1024885  45.8365726  55.9519672  33.2192492  46.3652611
  79.8527098  20.9282470  40.8631802  79.3632746  21.6656971  41.2276649
  80.5442810  20.7600021  41.5032244  11.4439011  99.9391937  61.2616491
  10.9240639  99.4714165  61.9152451  12.2375786  99.4128418  61.1654234
  32.8008890  30.0456619  52.0198154  32.1347690  30.6885958  51.7765999
  33.4624386  30.5525732  52.4905872  55.6620789  25.1978278  57.0065880
  56.5571260  25.5220342  56.9065332  55.1280022  25.9885454  57.0824766
  83.6408329  97.4186897   4.4352365  82.9079723  97.9398155   4.1072500
  83.7774754  97.7333450   5.3288543  54.9580193  51.0941172  34.5732141
  55.8029890  51.0656929  35.0220466  54.7256994  50.1749182  34.4415689
  91.1017036  23.6160803  60.7648230  91.5874863  24.2868543  61.2447262
  91.7276287  23.2798982  60.1233959  38.8350892  93.3710480  63.1141758
  38.3144188  93.5169506  62.3243380  38.2611132  92.8651142  63.6893463
  53.1697035  18.1012785  46.5283632  54.0553236  18.1943583  46.1772966
  52.8975105  17.2231233  46.2619305  85.2659512  91.4058399  53.0354691
  84.5702076  91.6318321  52.4181414  85.1237392  91.9894123  53.7807560
  55.7406282  34.8648715  56.7365408  56.2856388  34.1560221  57.0781898
  56.3415623  35.6035852  56.6395330  44.1856766  82.7587414  39.6634722
  45.1314783  82.8889084  39.5945430  43.8090467  83.6033630  39.4164848
  49.8998404  35.2244711  36.0874152  49.0689945  34.7574830  35.9988356
  50.3713989  35.0300694  35.2774334  88.7795830  83.2020855   2.4849820
  89.5854092  83.5222912   2.8903720  88.8894367  83.3897972   1.5528183
  25.5750394  20.3842211  13.0509222  25.1829505  21.2346554  12.8527820
  25.2633429  20.1761460  13.9317083  52.6443815  36.6680408  13.1206727
  53.5941458  36.7868209  13.1122136  52.5006199  35.9295988  13.7125063
  45.3781366 106.9431019  46.9093657  46.0751200 107.3756027  47.4027205
  45.8243752 106.2518024  46.4202833  32.8881812   5.7146049  73.3351183
  33.3468962   5.9755087  74.1337061  33.5477352   5.7877588  72.6452827
  47.0924664  47.9508877  78.6565161  46.9295931  47.0554590  78.3600187
  46.2471104  48.2497263  78.9916325  40.0013542  55.3856039  56.3289785
  39.7821832  54.4567823  56.4030695  40.8851671  55.4527092  56.6903687
  59.1687298   3.0391812  79.4032240  59.0607452   2.1767375  79.0022707
  58.4325314   3.1149715  80.0102615  70.7197285  23.8213491  61.5321112
  70.1835203  23.6200142  62.2990370  71.2613535  24.5614672  61.8061590
  82.7086926  23.8520551  19.2661917  82.6598263  24.4722271  19.9936736
  81.7955875  23.6810064  19.0355301  90.8104229  16.7470539  44.4919682
  91.4065456  17.0125675  45.1922369  91.1491108  17.1840346  43.7105751
  69.4605780  22.8880334  81.3408375  69.6042109  23.3661366  82.1575451
  70.0991869  23.2579541  80.7312679  11.3594604  78.0918837  77.7030373
  11.3784432  78.9520645  78.1225109  10.7594502  78.1985569  76.9649029
  74.9629784  16.3330543  26.0579658  74.4411612  15.6534171  26.4846182
  75.8287239  16.2575805  26.4592409  31.7055631  27.7251434  41.4161587
  31.7520809  28.6342478  41.1201859  32.0681143  27.7427673  42.3018646
  88.2013035  11.9930315  43.4881163  88.8362885  11.9338989  44.2019272
  88.0504513  12.9319406  43.3789110  90.9281158  34.8092818  63.2640028
  90.2530193  35.4526806  63.4796762  91.3247108  35.1393461  62.4577761
  34.8404622  15.4722643  52.1033430  34.5839787  14.9155927  51.3681126
  34.3589592  15.1183546  52.8510952  63.4932709  26.1308503  51.8325853
  63.7131262  26.5943074  52.6407337  63.3510351  26.8252897  51.1893463
  33.5201979  17.2164881  57.0560646  33.9335465  17.3561239  57.9080534
  33.8506699  16.3662660  56.7659903  21.3699913   5.5315953  54.0991211
  21.5738964   5.9285289  53.2523060  20.5942512   4.9962676  53.9321375
  65.0050259  12.6736581  56.3925409  65.2947330  12.8456032  57.2884989
  64.1083765  12.3525643  56.4882088  44.8259163  37.7857804  75.8166742
  44.2863703  38.3442569  76.3763380  45.5921984  38.3213830  75.6113100
  41.9581366  11.9476736  78.4767532  41.5354109  11.2313461  78.0030346
  42.1232557  12.6124454  77.8081369  51.9607687  46.5338230  68.4620953
  52.6152754  45.8400774  68.3810568  51.9413137  46.7366838  69.3973494
  49.7183752  20.5510116  72.6215076  50.6417465  20.4566526  72.8554296
  49.3847847  19.6541727  72.5964594  87.6385307  17.0521307  68.3327627
  87.6160336  17.4833596  69.1870260  87.8175163  17.7587724  67.7123928
  56.9065762  42.3481464  52.7313375  57.4383783  41.7214775  53.2219553
  56.7414141  41.9172716  51.8927097  65.5307674  26.8465924  58.4552050
  64.5973206  26.8327117  58.6666632  65.9486628  27.2030449  59.2391300
  28.6923862  20.1918960  72.0607519  28.9441800  19.5399296  72.7147913
  29.4986248  20.3686261  71.5760040  50.7637978  31.7941809  66.0946083
  50.6672382  31.6624784  67.0377731  51.7061329  31.7304873  65.9391165
  10.1156890  14.7537637  42.0626736  10.5334687  14.3023658  41.3292360
   9.2048460  14.8627722  41.7893362  28.3376169 105.2555561  29.8858118
  27.8111196 104.5819187  30.3162193  28.5677242 104.8745823  29.0383768
  34.6584129  70.4368258  76.2155533  34.3096066  70.7475758  77.0510149
  35.3005862  71.1000347  75.9625673  55.1957703  48.4719896  57.2379351
  55.9039402  48.0291367  57.7054882  54.6115541  47.7653074  56.9631195
  53.2104540  46.7568731  56.7147589  52.3427773  46.7852020  57.1179485
  53.0457830  46.4894247  55.8105564  61.9745827  41.2829781  53.1556892
  61.6405153  42.1304512  53.4496593  62.6421833  41.0516119  53.8014555
  57.9016542  52.8479528  91.2608719  58.7836361  52.5484467  91.4814186
  57.9285717  53.7946892  91.3994122  38.3739901  40.5523252  40.3544855
  39.2450380  40.6721592  39.9761343  38.5113001  40.6235313  41.2991047
  64.6184826  34.6278477  11.5581536  63.9249134  34.0635848  11.8999100
  64.8494005  34.2392755  10.7143998  47.4151373  43.0790281  66.0685825
  47.0620346  42.2822618  66.4644575  47.8342628  43.5415840  66.7942619
  57.3475170  44.8654747  55.6786013  57.9195881  44.0987253  55.6459570
  57.1039724  44.9434996  56.6010046  57.5336123  47.7674055  58.6177254
  58.4340715  47.6566029  58.3125496  57.5647116  48.5417223  59.1795921
  44.1880035  66.5203524  62.9795456  45.0748205  66.6928482  63.2958221
  43.8169098  65.9176159  63.6239290  58.7479639  22.3311186  30.0432849
  59.2383432  21.5100479  30.0833368  59.0439558  22.8244376  30.8083057
  93.7244892  13.5014081  70.8884382  93.4543800  12.8943205  71.5774393
  94.2187405  14.1803885  71.3477182  90.1419640  51.6679811  28.7542415
  90.8241749  52.2177410  28.3687830  90.5788994  51.2139511  29.4747806
  89.6895885  69.3632030  49.1926765  90.3080750  69.3040085  49.9208212
  88.9714050  69.8977947  49.5313025  80.0931835  56.0281467  55.8806086
  79.5168257  56.1639261  56.6326809  80.9755707  56.0304689  56.2515736
  77.1235371  67.6494408  66.4798784  77.6494837  66.9301939  66.8295860
  76.8119144  67.3288059  65.6335211  83.5035229  63.9212942  47.8108692
  84.0547848  64.1591167  47.0653629  83.5854721  62.9697943  47.8754520
  77.3689175  58.3128977  51.2093449  77.4526882  57.8790760  50.3602171
  77.9424667  57.8138304  51.7909002  70.8375311  61.9025803  57.6695204
  70.1543522  62.5704908  57.7277851  70.3652143  61.0932589  57.4741936
 106.3672256  63.4944582  77.4989891 106.2425232  62.7241898  76.9445848
 105.5010509  63.6665344  77.8682661  82.9704475  71.2652016  53.9285469
  82.9937935  70.3407574  54.1757107  83.3763599  71.7206526  54.6661377
 104.7794914  39.8068190  37.0657516 105.5477333  40.3332186  36.8445110
 105.0175095  38.9159703  36.8089080  73.2427359  77.1979666  55.3907156
  73.7320280  77.9810476  55.6429338  72.4521971  77.2255516  55.9297180
  95.7156086  49.5458126  59.5729065  96.3672066  50.2398634  59.4732285
  95.6423855  49.4200993  60.5189848  79.5616484  51.1328840  65.2086401
  79.1996479  50.2840757  64.9542570  80.4189968  50.9258699  65.5805779
  76.4420938  60.7919216  42.9986954  77.3714781  60.5683041  42.9489708
  76.1127090  60.6453753  42.1119785  95.1426315  59.5255041  52.9624748
  95.2131367  60.4732084  53.0770206  95.8137035  59.1637135  53.5412741
  69.5395613  65.6949997  48.8085032  69.7882700  65.9041214  49.7088623
  70.1272726  64.9825573  48.5569954  86.4212990  74.7461605  62.2736979
  85.4842377  74.9399805  62.2979689  86.6442108  74.7575712  61.3428879
  90.6047344  70.3417253  33.0269241  90.9597588  70.6796169  32.2047210
  89.8517132  69.8128796  32.7632761  79.4671631  88.7126350  51.4480066
  78.7224627  88.6866093  50.8471966  79.4174910  87.8853989  51.9270086
  99.6415138  64.6252680  51.1002827  99.5417690  65.5772018  51.1104774
  98.9635372  64.3070078  51.6963434  97.9808331  45.9520721  81.9691753
  98.5062790  45.1582432  82.0690823  97.8388214  46.0281229  81.0256290
 113.2805252  79.6561575  66.5356064 113.7610149  79.1545534  67.1942043
 112.8734016  80.3692055  67.0275974  69.7912693  86.9229698  32.1821046
  69.4409180  86.5369415  32.9848933  69.2795801  86.5211487  31.4800000
  12.0616150  82.3666477  58.6448956  12.7302206  83.0475998  58.7190819
  12.4810588  81.5801334  58.9937305  93.5248470  79.7897005  69.5687103
  93.1163120  79.7879028  68.7030697  94.4576454  79.6654129  69.3935919
  75.2730846  61.2100172  36.8125176  74.7544909  60.7023430  37.4366617
  75.8833981  60.5757618  36.4363980   2.1320425  65.5913639  42.2496605
   1.4836814  66.2572575  42.0206499   1.7905557  65.1892662  43.0483675
  85.1680851  66.7635012  59.5261669  85.8095932  67.3803616  59.1737700
  85.4513836  66.6123629  60.4279041  68.3294392  75.5829477  69.1129017
  67.5073624  76.0210848  69.3330383  68.6446095  75.2324677  69.9460077
  85.8100224  89.1477585  71.4728975  85.8890438  89.8119259  70.7881546
  86.6565323  89.1623211  71.9195032  82.5980091  98.8870430  89.1482544
  83.5276985  99.1036415  89.2189407  82.1971798  99.6713543  88.7735081
  91.1872005  92.1787262  70.7770395  91.3840103  92.2250938  69.8414421
  91.4303207  93.0402756  71.1159277  64.0763330  25.0106525  16.0344648
  64.8790073  25.0950098  15.5198455  63.5469866  25.7658386  15.7781076
  13.8839626  15.9903502   3.4888023  13.0030107  15.9854698   3.8631454
  14.4250929  15.5498755   4.1440818  89.6942139  66.3714123  73.6919546
  89.5469189  67.2268772  73.2885742  89.9049473  66.5699196  74.6043253
   2.3594764  56.2055111  19.4402838   1.8110041  56.6613340  18.8018191
   2.3795436  56.7890787  20.1987553  78.6578512  56.7706013  53.3971691
  79.3064356  56.2232113  53.8398218  78.1277418  57.1346569  54.1061640
  87.7433491  49.3560886  10.7746816  87.8105736  50.2539349  11.0996222
  87.5126934  48.8387585  11.5463018  81.2760067  89.2186832  24.8400140
  81.3802338  89.1295338  23.8926888  81.8566990  89.9414921  25.0778866
  18.6599219  61.5456820  88.3662319  18.9340889  61.8510723  87.5014687
  18.8756239  60.6131124  88.3703995  84.2353058  53.5123873  62.1546412
  83.6807060  52.7384758  62.0560884  84.8475075  53.2809639  62.8531265
  60.0585508  74.6574736  77.2842979  60.6772757  74.9142790  77.9680157
  59.6194839  73.8835001  77.6370192 103.4784126  80.8659935  49.1929913
 103.7037468  80.2854347  48.4660769 102.6160526  81.2127018  48.9641571
  98.0808449  71.9693899  46.4070845  98.9518642  72.0124626  46.0124826
  98.1741810  72.4248219  47.2438049  87.7369404  59.8583603  64.9694729
  87.8662205  60.3412008  64.1531467  87.0152283  59.2584372  64.7811794
  69.5417166  90.1505947  59.5596457  69.1305780  90.9498310  59.2303514
  69.9047661  89.7294807  58.7804842  85.6029224  87.2862816  37.3128772
  85.9831238  86.7901516  36.5879345  85.3491116  86.6202641  37.9518080
  64.5870018  13.7289274  16.6591132  64.9467325  12.8419912  16.6720891
  64.7270203  14.0571976  17.5472951  14.0941620  46.4030933  62.4404716
  13.5275352  45.9339285  61.8280602  13.5913992  47.1801472  62.6847076
  99.5882797  60.9194279  69.4675779  99.3476295  60.1152802  69.9276447
  99.4273758  61.6165066  70.1035166  81.5029144  84.6948814  29.7909474
  80.9339905  84.7701645  29.0248609  81.5457058  85.5828857  30.1457024
  12.3074567  72.3292208  73.4411049  11.5308332  72.8657341  73.2822227
  12.3610163  71.7535210  72.6782560  90.6230736  74.4595528  69.6951437
  91.3509274  74.1104984  70.2095604  90.4593372  73.7924671  69.0284967
  96.7675209  23.0056834  50.4746675  96.2657452  22.3883104  51.0069275
  96.1643791  23.7322855  50.3181362  91.3926220  69.0085793  51.2865162
  90.8411121  68.7091589  52.0092964  92.1098614  68.3755159  51.2543488
  67.0334768  42.1976328  21.8616772  67.0313358  41.3972330  21.3367105
  67.8934193  42.2060919  22.2819853  88.4806824  67.2786808  47.1375036
  87.9353333  67.4138451  47.9124546  88.5487938  68.1459999  46.7383194
  68.0450726  56.2601900  57.9764605  68.9408684  56.4521503  57.6990938
  67.4975872  56.8080235  57.4139929  85.9620667  83.5583019  35.1219296
  85.5181503  82.9899597  34.4925165  86.0098743  83.0369186  35.9232473
 101.3551712  68.0404425  61.4805841 102.2510815  67.7305412  61.3481855
 101.3685131  68.9482975  61.1775017   2.4142073  59.2352200  43.1059265
   2.3940909  60.1810455  42.9601955   1.9609267  59.1116810  43.9398956
  41.6911173  77.8116751  58.3277655  40.9429502  78.2585859  57.9318476
  42.2612047  77.5985718  57.5889730  62.6399326  80.4412270  56.6145134
  62.0300436  80.5764198  55.8892632  63.0352449  79.5873165  56.4390135
  58.8793707  56.9513273   6.8332040  59.7178221  57.0848370   6.3911575
  59.0723753  56.3215256   7.5277036  92.9359531  44.4585323  64.4884300
  92.3832035  43.6789370  64.4343138  93.8259411  44.1158819  64.5705557
  61.6532469  72.5934792  84.5413208  60.8050394  73.0172920  84.6723270
  62.2263288  73.2950592  84.2321396 102.0001030  66.0693884  58.8662195
 102.3200226  66.3755322  58.0175972 101.4344692  65.3265905  58.6551714
  92.1859264  63.2986021  31.6143107  93.0080223  62.8267145  31.4812398
  92.2552586  64.0655518  31.0457945 112.5015926  52.2879648  51.6624832
 111.7721748  52.2425175  51.0443258 112.2318840  51.7307949  52.3925829
  72.3237181  99.4405746  55.7650614  72.8415823  99.7060871  55.0050926
  71.9557953 100.2576828  56.1014986  95.6838608  19.1675901  55.0615883
  96.0489464  20.0348735  54.8861885  96.3723850  18.7112224  55.5452204
  16.0497653  10.5568540  74.2459345  16.4651740   9.7673267  73.8990688
  15.7278359  11.0181069  73.4714413  58.6595392  79.8232317  75.6799459
  57.8089809  79.7478199  75.2474070  59.1726971  79.0960455  75.3276777
  77.8728104  69.6385956  40.6825018  78.5678339  69.2302322  41.1986542
  78.3209658  70.3059435  40.1628542  73.5988331  44.9354792  91.3473988
  73.9551497  44.0505266  91.4257050  74.2461157  45.4089165  90.8247948
  73.3888006  64.1311789  59.6427488  73.0740452  64.2816734  58.7513971
  72.9252911  63.3448076  59.9308634  53.8199615  83.1622982  36.1547136
  53.0472851  83.5924625  35.7884312  53.6247301  83.0729389  37.0875216
  82.8681183  51.2069750  61.7985010  82.8400135  51.4307022  60.8682394
  82.3567486  50.4006863  61.8664932  61.1851978  67.5891447  64.5764303
  60.5783892  66.8818331  64.3579674  61.2517405  68.1044817  63.7725449
 107.3395061  89.3498993  52.3323107 108.1385517  89.4970989  52.8383541
 107.5246048  89.7339249  51.4752865  20.0494027  40.4393244  54.7592449
  19.3953335  41.0746288  55.0504827  20.1713943  40.6303787  53.8292694
  73.5137701  85.4378510  71.6226101  74.0852690  86.1390877  71.3097382
  73.0129623  85.8365726  72.3342562   8.4891748   7.5170469  38.0304265
   9.1046959   7.6545125  38.7504745   7.7963251   8.1599700  38.1815600
  22.2657871  39.8346782   5.8173430  22.8433847  40.5154037   6.1626369
  21.4272046  39.9887538   6.2523955  83.2779694  66.8224430  45.9427786
  84.1595554  66.4650106  45.8365679  83.2612991  67.1562052  46.8397522
  82.8475857  54.9868250  60.3728914  82.4052715  55.5375528  61.0188675
  83.3582401  54.3681431  60.8951044  68.7648535  83.5092449  53.1548738
  68.9905405  82.6365852  52.8327370  67.9194880  83.7028694  52.7497864
  44.3753672  82.5892544  63.0635023  44.6986961  81.7332935  63.3446169
  43.4439754  82.4492264  62.8928232  73.1035519  62.7819920  36.1824465
  73.9533091  62.3681021  36.3335681  73.0029392  63.3951759  36.9105339
  18.4797871  96.5659237  66.2015724  17.7429307  96.5303040  66.8114948
  19.2133152  96.1923599  66.6900492 102.4247551  94.2935944  48.4308624
 102.9327488  93.9672947  49.1736269 102.0996380  93.5042858  47.9978180
  95.3371429  65.0921392  49.9563599  94.6834946  65.6085539  49.4848871
  95.0225830  64.1904640  49.8911142  97.7492428  47.3062229  30.1818442
  98.0485916  48.1046009  29.7468567  98.5459042  46.9166708  30.5421472
   5.1075822  83.6562634  40.7551479   5.9279388  83.3874702  40.3416252
   4.7507000  82.8492546  41.1261129 100.2231789  77.3329926  51.0361147
 100.8243465  78.0761480  50.9855366 100.6867123  76.6857004  51.5675116
  95.2628040  91.9042301  30.9653807  95.1201439  92.3467827  31.8020535
  96.0255432  91.3460445  31.1166739 112.0898151  56.7524338  79.8067474
 112.6001358  56.3426828  79.1082430 111.2332630  56.9171858  79.4125271
  85.6365871  59.8248196  53.7285519  84.7924995  60.2308893  53.9256620
  86.1724472  59.9984503  54.5024633  75.4438972  62.2795200  54.5151949
  75.9067965  61.6706276  55.0906992  75.6229305  61.9572401  53.6318445
  96.6735649  65.0010681  60.0498581  95.9414196  65.3190947  60.5781078
  97.2412682  65.7643318  59.9431705  77.3149443  55.1225519  60.5776978
  76.4235210  55.3508806  60.8412504  77.8482771  55.3087044  61.3504410
  49.2915726  68.7222528  54.9632168  49.8478174  68.5299826  54.2083263
  48.4526253  68.9820576  54.5825624  87.2753239  59.8998451  41.2225199
  87.5077343  59.0301895  40.8970737  86.5479851  59.7436810  41.8248558
  70.9325171  75.9567213  53.8970232  71.8836164  76.0591841  53.8632250
  70.6914997  76.2466717  54.7768354 107.8217030  31.6029859  70.6689930
 106.9580650  31.8340993  71.0109711 108.0851555  32.3630667  70.1502419
  87.6547527  77.9586506  74.1922760  87.6153183  77.0365047  73.9386463
  87.1802330  78.4181070  73.4994841  96.0146523  48.5891819  54.6217585
  96.8958092  48.5958481  54.2479467  95.8492947  47.6694059  54.8288870
  68.3656168  95.8692455  32.3500991  67.6405525  95.2619934  32.2025824
  68.9443684  95.4082394  32.9573464  67.8528023  79.4570160  58.4023523
  67.7293396  79.4160509  57.4540329  67.4869823  80.3046608  58.6551237
  70.1717091  79.6457672  72.1778822  69.5524693  80.2775192  71.8122768
  70.9611464  79.7491741  71.6465330  68.5008240  72.2329950  78.9792013
  68.4874439  72.8549957  79.7066450  67.6140833  71.8733501  78.9552450
  96.1634541  79.3812370  53.1325388  96.1614895  79.8687172  53.9563036
  95.5326843  78.6746693  53.2708549  85.0295448  65.4126120  81.5985107
  85.5318642  66.1253929  81.9932842  85.5859470  64.6408176  81.7032909
  40.9758806  81.1797142  45.4997063  41.8376684  80.8582783  45.7647181
  41.0290813  81.2497616  44.5465565  50.2166462  94.6688175  63.7769890
  49.9119663  94.7390461  62.8722954  50.9242010  94.0250874  63.7421465
  99.5125198  94.0015984  36.7920113  99.9286461  94.1535282  37.6405287
  98.7728977  94.6089935  36.7757893  82.3072720  61.0411072  50.7434750
  82.8835583  60.6356430  50.0956154  82.6824284  60.7907438  51.5877533
  77.1882010  75.6888676  65.6815815  77.1734095  74.7557163  65.8942795
  76.3542080  76.0230350  66.0117722  79.8181534  75.0611448  57.0281410
  79.2180729  75.6223440  56.5370226  80.2671814  74.5461273  56.3577938
  97.5854969  95.3862762  55.6925583  98.2369995  95.7182407  55.0748396
  97.0164680  96.1360645  55.8664894   2.6179066  51.2192154  45.2415228
   3.4267306  50.7133245  45.3196955   1.9204150  50.5662966  45.3001547
  88.9603138 105.2407265  38.5797334  88.9349556 105.1036358  37.6327419
  88.8782406 106.1883736  38.6868358  45.4988432  94.7507381  62.5138903
  45.8885193  94.4867039  61.6804171  46.2465239  94.9794769  63.0660582
  85.5014229  65.7292795  64.2708445  84.6489811  66.0261154  63.9523077
  85.2962303  65.1780319  65.0259972 109.3984032  79.3561459  67.3970795
 109.7313690  78.6673784  66.8217850 109.7936821  80.1606178  67.0612192
  74.7238111  57.4038553  13.6538005  73.8713837  57.2709370  14.0684474
  74.9513245  58.3106279  13.8592911  77.9856205  71.5464926  63.2094479
  77.5539017  72.3021650  62.8109360  78.4931374  71.9145107  63.9327860
 112.6438618  26.5446568  50.0659657 112.1110249  26.7748260  50.8271074
 112.4979115  25.6062436  49.9463558  94.0910149  70.4225206  45.1135492
  95.0323009  70.4120541  44.9400234  93.7928200  71.2632513  44.7664404
  55.7981586  60.9347391  60.8892441  55.9151268  61.8372631  60.5925846
  54.9098825  60.7059193  60.6156874  67.6939011  92.7698708  80.7796288
  66.7370939  92.7880764  80.8001804  67.9589128  93.5435581  81.2770367
  79.9741125  61.1940384  52.2755289  80.6622410  61.2169647  51.6105604
  79.7328854  60.2698946  52.3388052  80.8692646  58.1918478  51.8613243
  81.8180275  58.0877399  51.9338322  80.5112743  57.5783968  52.5029945
  81.7114449  56.8116236  62.0873690  81.4076996  57.4547911  62.7279139
  82.5681686  57.1360922  61.8099070  25.7001543  39.9569464   8.1592250
  25.3107977  40.7314396   7.7532828  26.2022781  40.3006458   8.8981253
  70.2213097  87.5270081  66.7317963  70.8683777  87.1041393  67.2963428
  69.8308992  86.8081665  66.2347317  80.8666897  62.7218580  48.7518454
  81.0253334  62.1448135  48.0047941  81.2181568  62.2435760  49.5028114
  59.1905451  79.0451574  62.2451448  59.0527725  78.6902571  63.1233788
  59.0148115  79.9817896  62.3350286  50.4029608  87.4855042  61.1110878
  51.0034847  87.3021507  61.8335724  50.1034832  86.6229439  60.8237886
  51.4760113   4.7628987  48.8855791  50.9847546   4.9412084  49.6875191
  50.9613419   4.0946835  48.4329939 110.4768562  67.7668762  52.9882050
 110.6678486  67.7110052  53.9244938 110.5879688  68.6936140  52.7759790
  66.1849880  83.3755112  66.3632393  65.4465055  83.6432552  65.8162642
  65.7824087  83.0681324  67.1754503 100.8646870  77.4761772  81.8247700
 100.7238483  77.3968172  82.7682209 101.6454697  76.9494295  81.6540146
  78.7328291  91.3485336  35.7189965  79.4359636  91.5331936  35.0963163
  78.1565380  92.1107197  35.6624556  33.1642914  29.9441099   2.6485670
  32.9953980  30.1064539   3.5766569  33.9488554  30.4570103   2.4545997
  91.3577557  58.7487459  45.6610203  91.9076347  59.0803480  46.3708782
  91.6697598  57.8559399  45.5134249  81.5797138  90.7436085  78.1220484
  81.7562008  91.2819290  77.3504925  82.4074841  90.2954865  78.2958794
  97.8690815  64.5031977  39.7773385  97.6932335  64.5925665  38.8406825
  97.4545383  63.6755276  40.0209618  89.4090271  87.2156143  40.3729582
  88.7046528  86.9034386  40.9409618  89.3384552  88.1696320  40.4061317
  48.5351515  76.0994434  75.5487776  47.5857449  76.1251068  75.6679487
  48.6924076  76.6252661  74.7645521  97.6788998  50.4964447  56.7997980
  98.3011246  50.5658960  56.0757542  97.4318314  49.5718145  56.8154287
  76.2708426  64.6161318  55.8487511  76.1134720  63.9322948  55.1977253
  76.2970638  64.1498899  56.6843081  81.1270714  80.8839798  81.7511845
  80.9204197  80.9039021  80.8167744  81.6073799  81.6970348  81.9076538
  68.3097172 101.1658001  26.5914869  68.2563686 101.8947887  25.9734583
  69.1824293 100.7977867  26.4530230  55.9195185  80.0665855  24.1468620
  55.1236105  79.6514273  23.8145828  56.0202265  80.8539200  23.6118960
  96.4453220  64.7686338  26.2997556  95.8574677  64.0133953  26.3163447
  96.4548492  65.0846243  27.2032452  88.9703083  65.6265306  62.0640469
  89.5226955  66.1650372  62.6307154  88.7343311  66.2055349  61.3392735
  81.5700340  23.6568785  68.4476709  82.4097538  24.1154051  68.4184742
  81.5923977  23.0679035  67.6934576  87.3602676  79.4172859  54.3127060
  87.7219582  80.2798653  54.5161057  87.7281570  78.8395643  54.9813795
  68.1542540  60.9273481  48.8545513  68.9188147  60.6018829  49.3296862
  67.6414299  61.3922453  49.5156956  85.7193661 101.1320400  78.9878750
  84.8964977 101.3897324  78.5722876  86.1571980 101.9598770  79.1859198
  65.9014654  77.1655035  55.2406311  66.1436224  78.0861473  55.3406668
  64.9772501  77.1327448  55.4875898  70.2968884  70.3983498  53.0752087
  71.1405039  70.2957821  52.6347351  69.7666073  70.9068775  52.4616671
  52.4304628  86.7125797  20.0792146  51.9292402  87.1729374  19.4061053
  51.7668200  86.2970829  20.6298184  90.8299828  52.0559788  57.1065521
  90.8969021  51.1519051  57.4137974  91.4864349  52.1224928  56.4131021
 108.9039612  46.6219425  40.4737377 109.0163517  46.1610985  39.6423411
 109.6480465  47.2225094  40.5171824  98.2906628  82.5603867  31.4570665
  98.5369682  83.3960915  31.0606217  98.9897442  82.3778629  32.0849299
  69.3929100  71.9922543  50.4265833  69.9423981  72.7394152  50.6633186
  68.7053537  71.9800949  51.0924292 104.0276623  79.3520832  61.9772577
 104.1578579  80.2347851  62.3238468 103.1053734  79.3285608  61.7221689
  66.8693876  71.2308550  44.9135113  67.6195669  71.8013620  45.0807810
  67.0676947  70.8141136  44.0749216  96.2341785  55.5764437  30.3752995
  95.8984280  55.1375914  29.5936918  95.8924007  55.0601912  31.1052990
  60.1600647  53.4024048   9.3675441  59.4919777  53.8868999   9.8524708
  59.7875547  53.2910013   8.4928685 104.7816753  75.2374697  64.2467165
 105.0901508  76.1307859  64.0948486 104.4636440  74.9454165  63.3924341
  82.4862385  63.6759996  89.4622612  82.3323536  62.7452040  89.3004799
  81.6183472  64.0756893  89.4053364  99.7115421  46.7100048  33.3236074
  99.7379112  47.1643543  32.4815273  98.9795399  46.0985231  33.2430077
  84.0771866   2.6931643  59.6532488  84.1943741   2.5768492  58.7103939
  83.1557465   2.9326722  59.7523308   4.1647217  58.7141895  91.0101128
   4.1309091  57.7916288  90.7571888   4.8019680  58.7436867  91.7237568
  94.9876213  65.7940817  61.8461466  95.3536320  66.6536856  62.0543480
  94.0434456  65.9422350  61.7931461 108.5509777  88.7362957  69.7697210
 108.0304527  88.5291672  68.9935875 108.1166840  88.2665539  70.4817343
  68.0324221  98.1134892  55.1341724  67.1181297  98.3942699  55.1724768
  68.2526112  97.8905773  56.0386419  40.9680939  98.1529427  63.0755520
  40.5695343  97.5942516  63.7428141  41.6276503  98.6592007  63.5498095
 107.7911854  58.8463688  49.7383499 107.1153069  59.1508579  50.3439093
 108.5773754  59.3283892  49.9948692   0.9579454  53.6691189  71.9697475
   0.2812699  53.3825922  72.5831366   1.5609097  54.1870165  72.5030851
  62.1440601  71.8145704  52.9053450  62.0681429  72.7088451  52.5725746
  62.5619936  71.9120646  53.7609482  19.7546506   7.1132517  49.3941402
  20.2168393   6.2750316  49.3946886  19.0422690   6.9943672  50.0223207
  86.0898304  81.4563084  50.6407976  85.9127712  80.9743977  51.4486599
  86.4869785  82.2766113  50.9333897  92.7702236  60.8265352  26.2034750
  92.6302719  59.8980904  26.0173726  92.3092937  61.2839127  25.5002117
  76.5495110  52.8464174  58.2206154  75.9840631  52.7585649  58.9879322
  76.1357164  52.2979832  57.5541115  70.2794600  59.0788317   8.0659765
  71.0965061  58.7280178   7.7115774  69.5924187  58.5912514   7.6115924
  68.8821507  77.7236080  48.5231113  68.4950781  78.4963036  48.9346266
  68.1752777  77.0782804  48.5128307  58.5840034  83.4459686  44.5178890
  59.1754484  84.1133213  44.8658514  58.8444662  82.6395416  44.9629307
  96.9813919 105.1256084  62.6047325  96.9131279 105.9224701  62.0788240
  97.3839664 105.4131889  63.4241629  56.5033007  78.0698776  54.8351431
  55.5966043  78.3393002  54.6883535  56.7650509  77.6526499  54.0143871
  36.0946655  84.6476650  86.9189453  35.6399107  85.4866028  86.8440533
  36.8866444  84.8482227  87.4177170  81.9534779  88.8245773  43.4221745
  81.6215706  88.2090855  44.0758133  82.6149273  89.3356609  43.8885593
  87.8162384  43.1061792  58.8337708  87.7037525  44.0305614  58.6121941
  88.5996246  43.0852461  59.3834114  64.2734146  69.7219658  48.9105082
  64.9650812  69.3203783  49.4363976  64.7409153  70.2179527  48.2384396
  61.1539745  91.5721416  83.7291241  61.2984705  91.3579178  84.6507835
  61.2650442  90.7398891  83.2695103   4.2562166  46.5969467  56.1177349
   3.8144812  47.4254417  56.3039923   4.6790880  46.3601255  56.9431591
  84.0698814  82.7867317  89.1702080  84.6075916  82.0377445  88.9130688
  84.2280006  82.8839588  90.1092434  76.5041876  71.0640144  47.4750280
  77.3775673  71.3188410  47.7725267  76.5926504  70.1417112  47.2346973
  89.3394375   0.8605906  42.2926712  89.5110321  -0.0807738  42.3175955
  89.9050426   1.1887220  41.5936327  73.4224129  69.4004536  80.5130291
  73.9548349  69.1370821  81.2636280  72.8702784  70.1073217  80.8472729
  67.7075577  62.1099854  55.6448698  67.9589462  61.2438202  55.9654760
  68.0799866  62.7188444  56.2826967  86.6955757  63.2895565  82.1780968
  87.3933983  63.1175089  82.8102970  87.0947552  63.1117678  81.3264656
   9.7238201  51.3873959  71.4075565   9.5243305  51.1081123  70.5140018
  10.5659556  51.8367004  71.3356829  79.9992037  86.4468575  61.4932823
  79.6999121  86.2193775  62.3735762  80.8504868  86.0169601  61.4111853
  99.9816322  57.0062828  47.8299856  99.9564075  57.7242851  47.1974802
 100.4195118  56.2930870  47.3653889  86.6491890  71.5525007  57.3732615
  87.2911453  70.9081888  57.0749712  85.8011818  71.1450672  57.1968746
  82.6294708   5.8702374   4.5577961  81.6896820   5.7426137   4.4283831
  82.7279568   6.8140364   4.6833977  66.8561888  75.6293344  48.4577179
  65.9555483  75.3151798  48.5376549  67.0410061  75.5904675  47.5193310
  48.1502771 102.0221996  60.1676321  48.4814739 102.6607227  59.5361042
  48.8614178 101.9198418  60.8001184  75.5007696  87.5571728  86.9898701
  75.4305315  88.3970165  87.4436951  74.5959616  87.3153019  86.7922688
  83.8356781  84.3706989  51.4220190  83.4612560  83.7534332  52.0505285
  84.7785854  84.3336391  51.5825748  77.2594690  75.6937933  35.4027677
  76.5647554  75.2211618  34.9442720  77.8672647  75.0107145  35.6860018
  98.8781929  65.5934620  56.1437130  98.4858894  66.0584593  56.8827057
  98.6124706  64.6820402  56.2659121  30.2707458  93.2346725  46.5744209
  29.3241477  93.2372570  46.4323807  30.5445170  92.3458862  46.3478327
  94.7390842  61.6112280  79.1919756  95.1350212  61.7174911  78.3270025
  94.9876308  62.4035263  79.6681261  99.2224598  77.9102755  54.1949558
  99.8484707  77.2241735  53.9634180  98.4950066  77.4423361  54.6049309
 100.7916355  96.8902683  32.3074889 101.1277390  96.0189629  32.5174403
  99.8405266  96.8011189  32.3681450 101.1439323  84.1811943  68.2346439
 100.6783199  84.6686077  67.5550413 101.5709591  83.4644794  67.7653885
  19.8263860  52.0211458  48.1009293  19.6989429  51.1869001  48.5526180
  20.4880404  51.8342972  47.4349499 107.5186920  79.7943306  31.1071801
 106.6618443  79.6146774  30.7201791 107.7246571  80.6868362  30.8292603
  81.7296028  58.8166094  54.6793747  81.0810947  59.3373346  55.1532030
  81.3800049  57.9256964  54.6961355  53.5809612  84.2159748  62.0493984
  54.5308018  84.1297913  62.1306705  53.4388924  84.4440365  61.1306858
 101.2626839  63.2723522  65.4008389 100.6342411  63.2307529  66.1216450
 102.0649052  63.6072016  65.8015251  75.2819872  55.9499598  56.9544172
  75.7245636  55.3457832  57.5505114  74.3868160  56.0038614  57.2890663
  83.5811043  42.6998425  60.6591606  83.5405064  42.5867367  59.7095346
  82.6656246  42.7102232  60.9384871  86.4883900  75.0930357  53.1925535
  86.4782810  76.0442781  53.2986641  86.8051910  74.7616577  54.0328264
  81.5166092  53.9532232  63.7797403  82.2878742  53.4233475  63.5782385
  81.8713951  54.7616911  64.1495180 100.7570457 106.6905785  81.4121723
 100.1428032 106.5330315  82.1291924 101.6190434 106.5274715  81.7950249
  66.4640474 107.5992298  55.1945639  66.8064356 107.5749207  54.3010235
  66.5740776 106.7049408  55.5176258  14.8452568  12.9704416  56.3732481
  14.8677301  13.8188243  55.9305573  15.2250826  13.1399953  57.2353506
 103.3602715  63.1608343  77.5095844 102.9636288  62.4957561  76.9469309
 102.6278687  63.7160540  77.7770710   3.0904856  79.4188070  44.6424198
   3.5089308  78.8279390  45.2685261   2.7449703  80.1315784  45.1798248
   2.8749496  10.2419710  29.2446446   2.8376365  11.1863387  29.0929532
   2.3171915  10.1000226  30.0094914 103.3294964 107.0703030  19.1322637
 104.1822720 106.8650913  18.7489855 103.4976196 107.8200626  19.7030723
  97.5471783  95.6913853  47.2480726  97.5988579  94.8662281  46.7657185
  97.0269394  95.4830360  48.0240679  55.8103514  85.2703762  55.8720732
  55.5529594  85.7354259  56.6681385  55.7187319  84.3441486  56.0955429
  97.4463654  69.5100737  72.2991753  98.1886768  70.0319195  71.9944143
  97.6219845  69.3637657  73.2286835  76.1382866  90.0855827  18.0364001
  76.1392450  89.2413044  18.4874284  76.4123726  90.7141972  18.7042010
 103.8387775  87.3961926  41.6822481 103.0231762  87.5630093  42.1546936
 103.5979748  87.4617195  40.7581520  72.5295973  73.4278393  35.3755498
  73.3182907  73.9019728  35.6389689  72.6548100  72.5440216  35.7211280
  89.2630482  76.1846495  39.9085021  90.0786686  76.5828753  39.6045280
  89.0748501  76.6264391  40.7365322  93.1026745  83.3652210  49.5989275
  93.0758858  82.4796104  49.9611568  92.8149509  83.2617950  48.6918688
 105.6246281  62.3847055  61.3427973 105.1196671  62.8848982  61.9839334
 105.5367470  61.4745998  61.6260338 101.0564137  79.9411535  68.2009745
 100.5545425  79.1779089  68.4870052 100.7985973  80.6374454  68.8050795
  86.1056232  69.8786974  46.7558479  85.8200073  70.7904768  46.8134403
  86.0253334  69.5456457  47.6496410  83.0837631  72.0259142  62.6110077
  82.1672058  71.9531250  62.8772020  83.3429337  72.9063320  62.8828907
  51.4171505   4.2904967  55.6783867  51.9856071   5.0384581  55.8618021
  51.9019461   3.5343871  56.0093021  50.1609850  16.9692826  48.8200903
  50.0088978  17.7240014  48.2513142  51.0804749  17.0433581  49.0755939
  69.5243979  83.2925034  68.4370852  70.3527784  83.0101585  68.8247633
  69.1820335  82.5090599  68.0066872   6.5039176  26.9063330  62.5275660
   5.9274542  26.2813163  62.0879316   7.2896624  26.4012861  62.7367640
  11.7490280  47.6876116  91.7081642  12.1462178  46.9073439  92.0950031
  11.7068338  48.3169270  92.4281788  78.9834261  89.0003014  64.7389984
  78.5108614  88.4985733  65.4032135  78.3486938  89.6471405  64.4308472
  20.8006549  95.8921146  58.0127716  20.4403710  95.3418255  58.7081861
  21.5083766  96.3789940  58.4350300  60.0193882  75.2361774  81.6872501
  59.1911745  74.8536205  81.9769859  59.7623539  75.9487391  81.1020851
  12.0924795 105.9796047  70.2862215  11.2546217 106.3731575  70.0426197
  12.7471030 106.5083122  69.8299742  78.0192804  83.4686565  81.6836643
  77.6431131  82.8947926  82.3510551  77.3529053  84.1412258  81.5428638
 105.0197506  87.5246334  87.6471996 104.9042606  87.2284508  88.5500717
 105.7991791  88.0795479  87.6749992 104.7140694   6.4632988  41.8809414
 103.8358212   6.3016307  42.2255659 104.9023724   5.6986213  41.3368416
 100.5883694 103.4911442  64.7422981 101.4778233 103.7063599  64.4616222
 100.0613022 104.2396927  64.4628382 101.2870026  78.7089300  44.7060013
 101.5809631  79.6177101  44.7687149 101.0042477  78.4868956  45.5931234
  83.1585693  79.8841000  54.4223213  83.0861187  80.4031181  55.2233219
  82.8213978  79.0216017  54.6644783  97.0683670  90.9040737  53.2092571
  97.3195457  91.8072510  53.4026909  97.4287510  90.7365131  52.3384619
 103.6231518  84.7780609  56.9418097 103.3948708  83.9497471  57.3637295
 104.0734386  85.2776718  57.6228857  66.2837505  93.6976147  38.5797763
  65.6906939  94.2607689  38.0824041  66.3013601  92.8758430  38.0892682
  70.0373030  80.5841255  83.6198711  70.5569315  80.1595974  82.9372406
  69.1542244  80.2344608  83.5009670   6.1422670  16.8859947  61.1498308
   5.5034900  17.5149345  60.8142281   5.6703639  16.0534739  61.1709738
  59.0721750  95.4734230  24.7976804  59.9349642  95.7313251  25.1221967
  58.9442539  94.5870876  25.1357245   2.7504134  74.9553061  39.1864681
   2.3934129  74.5574760  39.9805164   2.9085431  75.8683825  39.4263053
  10.4311478  91.8286324  33.0789518  10.3123844  92.0026779  34.0126729
   9.5636332  91.9641972  32.6978064  98.4745693  73.2463884  80.6210041
  99.1847706  72.8354406  81.1139297  98.7421703  74.1612005  80.5330181
  87.3611546  75.5918026  72.9800415  86.5422821  75.1846981  72.6973057
  87.7723122  75.8911180  72.1691179 102.2669029 101.1643124  48.1659937
 101.9731712 100.2558327  48.2339001 101.5136242 101.6815376  48.4510803
  68.5318422  36.1974597   9.3316919  68.1261063  35.4815197   8.8427740
  67.8561163  36.8743157   9.3702298  39.5563102  89.6138668  55.8482361
  40.2208471  89.7431374  55.1715422  39.0605474  88.8496780  55.5541897
  72.8875208 100.5708122  12.0016897  72.7805710  99.7804737  11.4723945
  73.5857153 100.3528881  12.6191568  89.0524483  57.2430277  50.9580326
  88.8044357  58.1506252  51.1340714  89.4421482  56.9379997  51.7773724
  94.6655560  59.4248676  64.6730709  94.3219948  59.3036795  63.7879086
  94.2453766  58.7370110  65.1893377   6.1688691  71.3430977  59.1082239
   6.2343842  70.6309605  58.4719849   6.6051692  71.0060787  59.8907137
  91.4996338 101.2658978  46.4630032  92.0272350 101.3410759  45.6678820
  92.0284939 100.7269669  47.0513058  95.3750038  82.4026680  39.0100646
  95.5431175  82.9249954  39.7943759  94.9445820  81.6123962  39.3363142
  56.2302542 102.2721100  41.8354893  57.0565653 102.7531910  41.7907238
  55.6717587 102.8073025  42.3992968  84.0298557  75.3273249  85.4400063
  83.4952068  75.4100609  84.6503639  84.6157360  76.0837889  85.4129028
  75.8449745  99.1278839  57.5819731  75.2628660  98.3983231  57.7943945
  76.3848400  99.2392254  58.3645201  72.7441359  88.5831451  66.2688828
  71.8280268  88.3105564  66.3205576  72.7047920  89.5195770  66.0744762
  74.9183178  90.7341194  62.6475286  75.7351160  90.5946827  62.1683311
  74.5153427  91.4894199  62.2193241  83.6679649  73.4043932  76.8751335
  83.5373306  74.2792082  76.5092516  83.6363983  73.5340452  77.8229856
  52.5753260  48.4390926   8.4258372  51.9305611  48.8977146   7.8871542
  53.1072378  47.9498196   7.7982152  71.2344170  66.7969036  50.8975744
  71.7287683  66.9680119  50.0959682  71.8699217  66.9224024  51.6022825
  19.3222618  13.5923660  72.1350098  18.9484525  13.0368662  71.4509630
  18.9235663  14.4505966  71.9910860   2.0195501 103.0295277  58.9015388
   2.8847268 103.1104660  59.3029737   2.1120372 102.3109341  58.2759953
  13.6042809  64.3127537  28.3946657  13.3427036  65.1664209  28.0496192
  14.5147955  64.4323206  28.6646628 108.4959793  55.6997728  43.6275530
 108.7012768  54.7751999  43.7662888 109.1879940  56.1710167  44.0915346
   0.5508694  70.3208113  27.7328897   1.4672861  70.5773306  27.8359008
   0.2747637  70.0605679  28.6116767  78.5288620  73.0535507  42.5062275
  77.7567911  72.6825953  42.9334736  78.2928705  73.9652109  42.3347235
 107.0415688  75.5128098  24.0563130 107.5532341  75.3631306  23.2613134
 106.5591240  74.6966171  24.1878533  14.8968494   8.1978446  34.4025111
  15.7997584   7.9105872  34.5384216  14.4881248   7.4814337  33.9167857
 104.4813728  70.9881020  59.6424770 104.8575306  70.1224184  59.8016453
 104.6975327  71.1790419  58.7297630 102.7111053  45.2751398  67.3269653
 102.7798557  45.7233191  66.4839697 102.3912907  44.4000292  67.1075821
 104.6476650  94.7051716  40.1997805 105.4881954  94.9043179  39.7873569
 104.1717148  94.1990948  39.5413089  85.1898575  79.8070002  52.5840712
  85.9394646  79.6740818  53.1642866  84.4307804  79.5631313  53.1137609
 107.4141598  73.4772873  58.1178141 108.3165932  73.2092714  58.2910204
 107.0050621  73.5139799  58.9824104  19.3472970  95.6098938  70.1962900
  19.5539510  95.6394482  71.1304474  18.4206331  95.8449078  70.1484299
  58.4063911  72.4983883  78.3348608  58.2813406  72.0230293  79.1562176
  57.5241280  72.5919533  77.9755640  96.9152641 104.6505833  38.1182837
  96.0513496 104.3827343  37.8050137  97.2666454 103.8707066  38.5478926
 103.0091858  82.4118328  58.5046530 103.8827419  82.1144485  58.7590122
 102.4584866  82.2127056  59.2618227  72.8882170  94.7302914  43.2707453
  72.2633696  94.0408897  43.4955025  72.9517508  94.6940994  42.3163414
  74.1790390 102.6635456  50.1538610  74.1683674 102.3222828  49.2596245
  74.8128033 103.3804512  50.1290846  44.3479919  92.7231979  57.8951359
  43.8275242  92.6330280  58.6933947  43.8471365  93.3299065  57.3499107
  75.5923128  91.4778423  51.8396235  76.1455107  90.7008648  51.7589951
  76.1336803  92.1091747  52.3135185  91.9180202  63.4907770  80.0196934
  92.6946831  62.9520655  80.1707268  91.3132191  63.2401896  80.7180119
 107.9457092  57.0616484  39.8784709 107.9834557  56.6445780  39.0177393
 108.6222458  57.7380514  39.8467374  76.0329580   7.2933936  64.1093016
  76.1570835   7.5184619  63.1872559  76.9149160   7.1068722  64.4311476
 112.2519207  70.3845978  68.7234163 111.9396305  71.1243916  68.2024479
 112.1318722  70.6633186  69.6312380   4.1653723   0.3913572  63.3781910
   3.8179106   1.1555931  63.8380241   3.4286353  -0.2183017  63.3361626
  46.6723251  25.6935978  62.5520611  47.2754860  25.7525873  61.8111515
  47.2183752  25.8638191  63.3195782  83.1432247  91.7238808  68.5095644
  83.6818504  91.1603260  69.0650082  82.8051758  91.1391258  67.8313255
  97.9422474 107.1262455  39.3384171  97.8075790 106.5768242  38.5662627
  97.2023582 107.7334976  39.3322849  62.0911932  88.7346363  45.4144382
  61.4154053  88.1992149  44.9986649  61.9727230  89.6059704  45.0363207
  92.6453972  72.0772600  62.9849672  92.5074100  71.3113356  63.5422421
  92.2649765  72.8040218  63.4782505  71.9425249  61.3202715  90.8711433
  72.6110268  60.6421900  90.9688568  72.3944330  62.0405579  90.4316044
   9.4652146  54.3013811  77.9762983   8.9641213  53.8611984  77.2897291
   9.3504977  53.7479115  78.7487936  97.7256489 102.2493935  52.0487595
  96.9566727 102.1423626  52.6086330  97.3792744 102.6097012  51.2324095
  75.0749731  74.9622536  68.9696789  75.2460384  75.1944637  69.8823977
  74.4959211  75.6545734  68.6508894   5.1712054  85.8423805  78.3921003
   5.8692181  86.2436008  78.9098167   4.4454557  86.4641666  78.4458876
  96.0775661  60.0413418  69.3437862  95.4545403  59.8249006  68.6500788
  96.3912106  60.9173822  69.1192532  75.2428150  93.4188557  33.7741351
  75.9693050  93.9522552  34.0965056  75.1969719  92.6827431  34.3842745
  82.6141834  66.8912792  66.8230963  83.4072113  66.7029810  67.3249769
  82.7815437  66.5129471  65.9599113  77.1232510  75.6538486  77.1913338
  77.3653221  74.7277880  77.1846199  76.7415571  75.8079100  76.3271570
  38.2831168   6.4804024  47.4855566  37.6472664   5.7734549  47.3753262
  37.7504492   7.2722340  47.5597191   8.1017637   1.0536964  73.5826874
   8.8546467   1.5513737  73.9016199   7.6641691   1.6465485  72.9717302
  94.8267365  70.2827597  71.2385559  95.6142521  69.9181080  71.6423941
  94.1857910  70.3138304  71.9488049 101.5640259  74.0160561  34.4646597
 102.2573853  74.5318508  34.0530276 101.6978741  74.1413927  35.4041314
  20.4758668  63.9040041  86.8064976  21.1479998  64.5384312  86.5575600
  20.4898381  63.9033842  87.7635956  77.2157001  89.2613888  53.1936026
  76.7148495  88.4657478  53.3734083  78.1307077  88.9903641  53.2679987
  93.7133312  93.7776661  43.1134748  94.5724201  93.3576584  43.0711174
  93.0967903  93.0523491  43.2136011  83.0467510  94.2212677  59.9955702
  83.9165783  93.9884949  60.3203058  82.6237774  94.6574497  60.7352114
  22.8043842   3.5093558  56.6996193  23.3260369   4.2849082  56.9060898
  21.9075346   3.8360775  56.6279030  81.6579914  91.9971752  88.6147022
  81.4433861  91.4356613  87.8698063  81.5329266  91.4370441  89.3807507
   5.3711402  53.9694357  60.7252455   6.2473339  53.7233782  60.4286432
   4.7817627  53.4036779  60.2264643 111.2559891 103.4273720  85.9659576
 111.0328579 104.3575096  85.9301376 110.4118443 102.9771805  85.9346771
  68.9156246  90.0002861  63.6932325  69.3933249  89.3698883  63.1541252
  69.5892286  90.5997086  64.0144491  -0.2859723  91.0904884  63.5800648
  -0.2820817  90.1381969  63.6768198   0.5790613  91.3656330  63.8837814
   8.1228530  95.5638695  65.0351048   8.9037001  95.5740356  65.5886459
   8.3972865  95.1030827  64.2422676  58.1766033  82.1271610  51.7403030
  58.0731869  82.9901409  52.1413040  57.4931479  82.0905304  51.0711432
   4.7730705 100.8137035  45.0725698   4.3534195 101.5481377  44.6245337
   4.8003590 101.0781097  45.9921217  93.6887074  70.2372742  59.2447996
  93.9334202  70.2672768  60.1697016  93.6047173  71.1559248  58.9893436
  72.1214104 102.2717190  38.3409023  72.4287939 102.2698212  39.2474031
  72.7590561 102.8108025  37.8729033  47.4009132   4.9501842  20.4642820
  47.0679188   4.5541841  19.6589684  46.6360807   5.0076634  21.0369587
 104.2523861  66.1961842  52.5651979 103.8967323  67.0731354  52.7090549
 103.6073017  65.6085873  52.9586744  73.1205750  57.3140955  85.1596737
  73.0286503  56.3873434  84.9385166  73.6480618  57.6787376  84.4490242
  56.3283777  46.6683245  13.2310605  56.5964222  45.7656097  13.4027731
  56.9617319  47.2017002  13.7112665  78.3779955  68.4015942  46.1785555
  79.1236782  68.6758041  46.7124033  78.2933092  69.0867281  45.5154896
  88.7361622  73.4556484  43.3844137  87.9433060  73.1514120  42.9427814
  89.3784904  72.7636147  43.2271194  91.0339737  25.8686066  43.1036568
  90.1525116  26.1563873  42.8661013  91.2958336  26.4579272  43.8110209
  99.7597504  16.8706751  50.0872517  99.9965572  16.8635094  51.0146713
 100.0629997  17.7210331  49.7691870  81.6796017  85.0375748  53.0872297
  82.0316219  84.2510605  52.6704454  82.4468613  85.4802132  53.4500313
  99.1713047  55.3728771  77.2570848 100.0272846  54.9974632  77.4634838
  98.8380337  54.8306227  76.5421581 100.2002811  64.8248482  44.0986061
 100.1859474  64.0218782  43.5777712  99.7668266  64.5865488  44.9180937
 111.5039253  14.8082399  56.0111523 111.8874741  14.0736520  55.5320883
 111.5148640  15.5334294  55.3864861  67.7578545  71.7454529  52.3687172
  66.8238926  71.9039965  52.2315598  68.0053711  72.3572731  53.0619955
 108.3963680 105.1216221  39.0992928 109.0891075 104.4621372  39.1369081
 108.1456566 105.1532555  38.1760502  91.7211914  57.3348236  38.2067394
  91.3043213  58.1436300  37.9096055  92.4281120  57.6271057  38.7821198
  62.3641825  75.8920240  85.9224224  62.1244860  76.8117237  85.8087063
  61.7439222  75.4131222  85.3727341  14.3879783  96.3430023  35.5593824
  14.6989751  95.4378986  35.5765128  13.4957814  96.2832737  35.2178454
  23.7437248   9.9529874  18.7814999  24.2004657  10.4595220  18.1099033
  24.4428968   9.5239443  19.2747664 110.9047794  74.6356678  58.2447100
 111.5681267  75.0617504  58.7875319 110.7379341  73.8005686  58.6817503
  62.9290247  78.4844112  44.9356174  62.9962730  78.8171005  44.0406179
  63.1263733  79.2409563  45.4878235  84.8232841 102.2101498  81.7396259
  85.4637718 102.1112442  81.0351944  83.9943695 101.9312763  81.3505650
  31.2719631   1.4547390  45.9666252  31.5018106   1.9077058  46.7779350
  32.1138692   1.2151567  45.5792904  97.1228313  94.1831398  40.2191114
  97.0840073  93.2627583  40.4791546  96.4035320  94.2865467  39.5960903
  79.4711208 102.7422619  74.7844934  79.8976374 103.5594177  74.5264721
  78.5818672 103.0019188  75.0253963   2.1861638  96.8088055  61.0568476
   1.2470845  96.9654274  60.9576941   2.5326142  96.8582726  60.1659155
  74.0113497  69.0349007  54.0172052  74.9043417  69.3549871  54.1450214
  73.8782215  68.4066343  54.7269917  51.0721636   7.4189526  77.3999262
  51.1413717   6.7137897  78.0435038  51.9765091   7.6921242  77.2457600
  59.4719839  85.6631660  63.9177322  59.3312883  86.1339474  64.7391939
  59.8758936  86.3087654  63.3378267  55.9549284  63.8866091  60.1077795
  55.1776075  64.3096685  59.7430468  56.6852093  64.4277573  59.8076439
   3.1955981  75.9219742  89.5719433   2.7425587  75.1788521  89.1734982
   2.5256616  76.3554287  90.1006603  97.3290634  80.0798416  36.0800338
  96.4972591  80.5514812  36.1235046  97.8570175  80.5820847  35.4593515
  59.3357134  12.9781699  39.5125437  59.6982718  13.8571918  39.6225548
  59.0976143  12.9314435  38.5866094  64.5028782  89.8180771  87.2141457
  63.8211536  89.3842888  87.7272892  64.2233515  89.7104263  86.3050175
  20.3678393   2.4527623  25.1696754  20.1369381   2.6059970  24.2534685
  20.7638931   3.2752258  25.4576445  85.9851742  75.3399086  49.8876381
  86.8489933  75.3992653  49.4795561  85.7504368  76.2467670  50.0844574
  91.1021614 106.3057041  36.4901519  91.7057419 105.5836964  36.3151383
  90.2445030 105.9692001  36.2304997  71.5330648  99.0070152  18.6703622
  71.5799332  98.9631271  17.7153182  72.4060678  98.7477970  18.9651656
  45.8368635  19.0075147  42.2953939  45.5533600  19.6554792  42.9403734
  46.2863922  18.3376050  42.8105402  98.5664463  23.9497042  13.2954466
  98.4758377  24.0088844  12.3443842  98.1960106  24.7693658  13.6228025
  25.3339958  19.4404554  15.7734048  24.8317361  19.1588724  16.5380478
  26.0644293  19.9405646  16.1375344 112.2512531 106.2962532  73.0745697
 112.6343918 106.7809010  72.3434448 112.9689121 106.2003994  73.7006807
  21.7833018  33.3235240  67.6451874  22.5331831  32.9551768  68.1123352
  22.0842028  34.1824627  67.3486805  45.4959488  77.7836800  71.5344667
  45.2851248  76.9921017  71.0393000  45.1432562  78.4986401  71.0046816
   6.2739587  44.4122362  33.9892149   6.8122512  45.0289297  33.4930682
   6.8227816  44.1584063  34.7312379 106.2368774  99.2248154  64.9414921
 106.1507797 100.0011349  64.3881798 105.4229641  98.7404728  64.8029375
 107.0163918  98.9728737  60.9073973 107.1737003  98.9424706  59.9636984
 107.7018356  98.4199047  61.2824106  13.6133647 103.4947777  21.6686034
  13.0765998 103.1801224  22.3960018  13.0623233 103.3752632  20.8951020
 108.6793709  72.0899630  73.1115007 108.6764431  72.5743294  73.9371014
 108.9842987  71.2141848  73.3486986 104.2390347  77.7047682  26.6769505
 104.3855000  77.4662638  25.7615805 103.5305882  78.3477354  26.6465282
  97.1732521  73.4863329  84.1417694  97.6005936  73.6004400  84.9906445
  97.1921825  74.3572664  83.7450886  13.0373621  90.9168625  63.6233282
  13.2503772  89.9921131  63.4980106  12.2055006  91.0352898  63.1648397
   5.0071061  80.7081985  70.5367088   5.8127135  81.2250423  70.5468464
   4.4421834  81.1325073  71.1825132  12.3793089  92.1760368  31.4902306
  11.6492283  92.2396851  32.1059918  12.9586232  92.8993225  31.7300105
   6.3132989  60.0135136  88.6785412   6.3078529  59.6797180  87.7814484
   5.4699862  59.7413778  89.0404797  97.2976112  93.1089401  57.1109152
  97.4030304  93.8986778  56.5804148  97.1978760  93.4332085  58.0059767
   4.1919830  79.1103697  58.4060383   3.9290112  78.1985378  58.5311079
   4.9673808  79.0614843  57.8469276  31.8637681  11.0655916  67.0251274
  31.3568568  11.8695319  66.9113159  31.3385248  10.3887939  66.5981674
  92.4442959  48.9421844  88.4907722  91.8675518  49.5935440  88.0916023
  93.1765461  49.4514656  88.8381481 109.9593544 100.8484268  81.9631100
 110.7740498 100.6327915  82.4169827 109.9128056 101.8039513  81.9955063
  15.1793909  95.7263947  25.2288556  15.8088028  95.1475906  25.6590414
  14.3990135  95.1851177  25.1094317 107.0321465  78.1782341  42.8056002
 107.7316856  78.4687614  42.2203875 106.4667702  77.6381636  42.2534132
  10.6462693  95.1982403  92.2162819  10.9795988  95.8228016  92.8605175
  10.0532353  95.7126141  91.6685963  94.7704220 103.9864922  73.3828306
  94.1491699 103.4047604  72.9447889  94.2677879 104.7805882  73.5644770
  92.4505806  71.9705439  41.7246962  92.9184914  72.2806311  42.5000286
  91.6828537  72.5390959  41.6649389 105.2306080  93.5290623  75.7925701
 105.4446220  94.4594193  75.7228708 104.9228287  93.4208488  76.6924572
  68.8129997  87.0024204  82.3211861  69.4226694  86.6333008  81.6822052
  69.2962408  87.7235794  82.7244663  78.3556175  74.3499374  47.4195242
  77.6396799  74.8556995  47.0349836  79.1476440  74.7251987  47.0346785
  81.2179470  83.0358219  37.7333999  81.5893364  83.1983566  36.8662882
  80.8209610  82.1675110  37.6650047  68.7573719  67.6691484  63.8846064
  68.8387728  68.5262060  63.4662008  69.1208124  67.7950430  64.7611284
  54.9477816  76.6248846   7.2409630  55.8520174  76.8878269   7.0693356
  54.9513245  76.3365698   8.1537026  87.3626232  86.8242168  50.2783108
  86.6289902  86.6805935  49.6804953  88.0916500  87.0689583  49.7083521
  88.1020069 106.1294079  77.1136856  87.3229313 105.5979252  77.2773552
  87.7711487 107.0250988  77.0465994 106.1909199  90.8964348  71.5635633
 106.0051823  90.9108353  70.6246662 106.6908455  91.6973591  71.7211342
 104.6805477  81.3782787  55.9170628 103.7366867  81.5354729  55.9426451
 104.8938751  81.0581017  56.7935371  86.0636044  61.2954235  69.3185520
  86.9161797  61.4777946  68.9234686  85.4543686  61.2871218  68.5803127
 100.4892731  82.5887585  29.3363166 100.2279091  83.3334923  29.8778796
 101.3511372  82.3403358  29.6705508  88.4394646  68.2609415  69.4047880
  88.5049915  69.2111731  69.3099451  87.8968334  67.9834175  68.6667109
  73.0913877  82.7247429  71.4342022  73.3333826  83.6393452  71.5796804
  72.1513176  82.6945400  71.6119432  38.5091877   7.3731077  27.1416712
  38.0883431   6.5551537  26.8769574  38.8691139   7.7308661  26.3300729
  36.4384985  64.1591549  60.9211016  35.9071589  63.5045052  60.4679537
  35.8007312  64.7360182  61.3414717  84.8508549  76.4670038  58.9039421
  84.1881752  76.4853477  59.5944166  85.6696892  76.2793016  59.3627596
   9.5455652  22.6067066  59.5422125   9.4977123  21.7244053  59.9102974
   8.7977827  22.6587701  58.9469433  95.8459854  73.7435579  35.5133009
  96.8026352  73.7392664  35.5455709  95.5826283  74.2478704  36.2830710
  66.0668230  80.6468582  61.1326790  65.7208204  81.0550594  61.9263363
  65.4821444  79.9067402  60.9695768 100.7139587  54.5795584  73.8928890
 100.7971191  55.4474926  74.2878628 101.0938740  54.6763897  73.0196667
  77.1613932  77.0555830  32.2990656  76.8000221  77.9026461  32.0380521
  78.1087971  77.1918821  32.3080826  47.0226622  98.2871819  58.0195141
  46.4737701  98.9379978  58.4569979  46.7620277  98.3334446  57.0996428
  95.9106731  84.9611759  65.3940296  95.6499290  84.8245907  66.3048458
  96.5522957  85.6704521  65.4323578 107.2194386  81.0780525  73.0359554
 106.5289307  81.5623474  73.4885931 107.0064354  80.1575565  73.1894064
  38.6930680  93.9735126  83.5526657  38.3561635  93.6720085  82.7089691
  38.1768513  94.7547150  83.7513638  84.9339199  70.7713699  77.6229048
  85.8159828  70.9837294  77.3177814  84.5332718  71.6208982  77.8073311
 108.9812183  90.3449154  40.4281092 108.7941742  89.5328617  39.9571466
 108.6609459  90.1860428  41.3160372  35.3941417   8.1665039  58.4874678
  35.3552175   7.2279632  58.6714745  35.4149175   8.5791939  59.3508863
 108.0995750  99.2161369  57.5773430 107.9580879  98.7229156  56.7692947
 108.3337021 100.0962925  57.2828293 111.4508533  70.1037312  23.6007166
 111.7076588  70.5054379  22.7707052 112.2765732  69.8291779  23.9995241
 113.6236095   3.0750161  52.6455355 112.9226208   2.4343158  52.7653122
 113.1898880   3.9237881  52.7333164  30.0340796  13.2461631  79.0771914
  30.1930380  13.4659505  78.1592274  30.7707715  12.6854146  79.3202496
  71.4286709  78.9297056  49.2130661  70.5914211  78.4850502  49.3454695
  71.8833351  78.3953238  48.5619545 109.8799419  57.6905823  18.0563021
 110.3846741  57.0724297  17.5277519 110.0850010  57.4551916  18.9611650
   1.2681970  86.6743565  61.6518068   1.1702819  85.7729912  61.3448906
   1.2269177  87.2042561  60.8557272  94.7178745  93.9904881  72.3034096
  94.2028236  94.7966671  72.3356295  94.7275925  93.6761856  73.2074833
 108.9167881  85.1115513  78.8655758 108.1291580  85.6528473  78.9191532
 108.5880756  84.2236042  78.7251234  38.9271140  33.9060307  63.4961367
  38.9543486  33.2582927  62.7919149  39.7235703  34.4233465  63.3766651
   9.8532951 102.1114159  61.6231251  10.2556586 102.9797554  61.6051579
  10.5833805 101.5063858  61.4921999   8.3583164  26.4921927  12.2083426
   8.2115757  26.8994951  11.3546419   8.9721501  27.0782757  12.6510024
  16.7297137  12.1942711  44.2087078  17.5114655  11.6452861  44.2696095
  17.0191216  13.0569518  44.5057917  48.9646196  12.8061450   4.6716210
  48.3038187  13.4517431   4.9221727  48.6973000  12.5158596   3.7995511
  94.0075016  64.7595024  33.9966035  94.4656944  65.1289606  34.7514486
  93.1777096  65.2355146  33.9635825  11.0860050  81.1861515  75.1638842
  11.3392162  81.8042755  75.8494759  10.1481104  81.3340187  75.0425625
  13.7928951  24.4570041  49.0272856  14.6800268  24.7006679  49.2915916
  13.9143157  23.9326000  48.2357740  61.4802980   2.8489640  57.3256302
  61.6761446   2.0670661  56.8093872  61.5770912   2.5660563  58.2349300
 101.8407917  79.1438913  54.8122406 101.4611435  79.2640448  53.9418030
 101.7359257  79.9943686  55.2387619   2.4683157  34.4766736  66.0251379
   3.0540138  33.8207817  66.4032888   2.0016710  34.0098429  65.3319263
  71.9129467  81.8713188  13.4106946  72.6410675  81.6900063  14.0050030
  71.4447880  82.5987625  13.8204277 112.6334667  99.1485691  77.2798634
 112.3506451  99.9689102  76.8757820 113.4623718  98.9421272  76.8479729
  89.4933987  66.3699913  30.2417016  89.3331146  66.9144869  29.4709420
  90.4471493  66.3276720  30.3109217  80.5319023  97.5531673  61.6855049
  79.8445177  97.8667355  62.2732210  81.1445904  98.2857800  61.6211414
 103.8701344  84.9254704  27.5039482 103.5346031  84.0916061  27.1748137
 104.7396469  85.0053310  27.1117759  26.6383767  22.0704365  39.1972995
  26.6079760  21.2821770  39.7394753  26.5282583  22.7916908  39.8168945
  74.8208284   0.9271326  64.5061588  74.8636389   1.8761869  64.6231842
  75.6103706   0.5970703  64.9350119  69.4002533  97.3212528  50.5037165
  68.5217762  97.4792004  50.8494949  69.9414682  97.1795750  51.2804031
  90.2937412  89.0810966  36.4884472  89.5043945  89.5717812  36.7173457
  90.2063847  88.2530689  36.9606423  14.7777891  13.6565375  42.8905201
  13.9126420  13.2741964  43.0373764  15.3846765  13.0406070  43.3010674
   1.6214406 100.1797962  69.2996788   0.9205639 100.8312416  69.2748547
   2.2316611 100.4583740  68.6168480  18.2202840  13.4473217  78.7522936
  19.0046453  12.9002094  78.7113380  18.0910873  13.6112082  79.6864700
  66.0881472  70.1550436  36.9656277  66.4887333  69.5510769  36.3403392
  66.1028004  71.0032892  36.5223432  96.9772243  91.4492226  40.5229092
  96.4991665  91.4597702  39.6937037  97.3649025  90.5750465  40.5647755
  64.7786617  49.3991899  12.9915023  64.2653322  48.6493969  13.2923961
  65.6832886  49.1718960  13.2064807 106.0079861  69.1904688  51.4303732
 106.7900658  68.8041258  51.0362577 106.3452625  69.7683477  52.1148729
  81.4408493 104.8953438  91.6663456  81.9705486 105.4137802  92.2720337
  80.5371189 105.1292992  91.8779278 105.7029915  91.5098763  68.9791489
 106.4860058  91.6242027  68.4405851 105.1055145  92.1960735  68.6818314
  15.3121459  19.2529500  66.3902903  15.0182724  18.3419943  66.3958216
  16.1340845  19.2424428  66.8807364 108.5324001  22.0491385  38.8732147
 108.5255337  21.1169386  39.0904498 109.4414043  22.3189116  39.0042448
   1.6073298 101.3900471  50.3320169   1.5905365 100.4330254  50.3399324
   1.9919446 101.6298294  51.1751080  92.0329380  87.8462696  45.7188368
  92.6914406  88.5396671  45.7613039  92.2379208  87.3702526  44.9140835
  96.3236046  40.0130939  52.8131485  95.9193611  39.7205973  51.9962835
  97.0197678  40.6087399  52.5360155  91.0022163  94.1401005  38.2800627
  91.4978600  94.9217033  38.5243130  91.5487480  93.7046242  37.6259208
  22.4391341   8.0087608  55.4378796  21.9226789   7.2704959  55.1146603
  23.2053232   8.0342549  54.8646975  36.7584229  43.6456680  70.9582615
  37.4428320  44.3141317  70.9271097  35.9439182  44.1304111  70.8247042
  48.0375147  89.9552917  56.3504267  47.3926306  89.9321270  55.6434488
  47.5810719  90.3792286  57.0771742  95.6111813 104.9438190  55.1666069
  95.2104568 105.1287842  54.3172312  95.0872517 105.4437160  55.7925701
  20.6762862   6.1053205  66.7824554  19.8660851   6.6109598  66.8467426
  20.9823227   6.0274017  67.6860619  22.4392390   3.5769492  88.5071087
  22.7840233   3.4294164  87.6264381  22.2133923   2.7029371  88.8254261
 112.1292210  23.5515165  65.6922054 111.7597103  23.0423832  64.9707651
 111.4131451  23.6280251  66.3227654 104.5736122  97.4431801  49.8832417
 104.2605877  97.2806835  48.9933872 105.5077076  97.2368240  49.8499823
 110.9174824   4.4191125  71.6186523 110.4421902   4.3019557  70.7960939
 110.4298782   5.1000386  72.0821333  54.0457106  91.6215611  39.6998954
  53.7979650  90.8619785  39.1727424  54.8228455  91.9720173  39.2646003
  31.3824630   0.6439649  89.7875118  30.6561446   0.1853698  90.2098656
  32.1091700   0.5616710  90.4050541 104.0870285  82.8344727  50.9083843
 104.0223408  82.0119381  50.4231167 104.9997902  82.8728485  51.1940956
  96.3905430  88.3716106  81.5913486  96.5654850  88.2888508  80.6539249
  96.7287827  87.5604725  81.9706535 105.7555294  89.9758530  61.3875198
 106.3694668  89.7834492  60.6787920 106.0475826  89.4247246  62.1136093
  90.8985519  77.0862865  73.4528923  90.0776863  77.4888515  73.1694508
  91.4665127  77.1334410  72.6838493   2.0269504  93.1012821  71.9941044
   1.4445588  93.6986542  71.5248489   2.8813410  93.2258987  71.5809250
   7.3534715  13.8176000  60.7471704   6.4169049  13.9494681  60.5999088
   7.4058735  13.4236705  61.6179800  32.2949824   0.2697060  87.0813370
  31.8112215   0.5627892  87.8535557  32.6303420  -0.5938366  87.3222733
   8.9788336 106.0243511  16.3342059   9.1407794 105.1858902  16.7666233
   9.7817039 106.5259171  16.4758682  56.9951296 101.2542057  47.2216749
  57.7451801 101.7003250  46.8284416  57.3607254 100.7887268  47.9739428
  38.7127161  74.6165800  61.7049360  39.3887854  75.2909517  61.6387558
  38.8524437  74.0612650  60.9379053  49.2264652   6.9132107  48.8369274
  48.8652706   7.7336198  49.1726351  49.7166491   6.5481341  49.5735884
  69.4195795  71.8640423  44.7305155  70.2653408  72.2362900  44.9802113
  69.5967388  71.3910484  43.9174223 111.7277718  94.7976780  41.4704990
 112.3191357  94.3584824  42.0817518 111.0738564  95.2172947  42.0295668
  13.3504987  85.0233078  51.4499140  13.3831322  85.9679413  51.2987661
  14.0509987  84.8573589  52.0807791  21.5101504 106.8201160  66.3892698
  21.9905305 107.1673489  65.6376743  21.6797614 105.8783150  66.3676071
  51.7083883   6.6763389  57.6909685  51.5173960   7.6128548  57.7428532
  50.8597851   6.2515420  57.8160763  99.2435169  76.5782356  71.3038111
  99.1873550  77.1741247  72.0508003 100.0258732  76.0537052  71.4741468
  94.8494625  54.9945021  68.4754515  95.1769447  55.6614256  69.0789366
  95.6054115  54.7707558  67.9325914  96.1935711 103.3924675  69.4340086
  96.9696236 103.7865257  69.8323727  96.3000202 103.5494995  68.4957933
   0.3031529  84.9414062  82.6357841   0.7495286  85.1514149  81.8154907
   0.1143722  84.0051270  82.5728321  85.1230240  74.5750189  14.0676701
  85.6436539  75.3026867  13.7275672  84.2155457  74.8629379  13.9686036
  24.3670464 105.0932693  42.8195190  24.5904469 105.4839611  41.9747162
  25.2079296 104.9879360  43.2645464 103.0644226  58.8691044  77.6494598
 103.9579773  58.5411501  77.7506781 102.9936981  59.5740938  78.2930565
  62.4973583  27.8971815   1.5059541  63.0670881  27.3783040   2.0737636
  61.9015455  28.3433628   2.1077502  84.6825600  63.3823061   3.3675277
  84.2198944  63.4493971   4.2027947  84.9620819  64.2775154   3.1759763
  69.1303158  60.3493786  53.1949711  68.9409733  59.6702051  53.8423538
  69.9191141  60.7805061  53.5238361  53.5929346 107.3919010  37.8175664
  54.2712593 106.9273853  37.3273206  52.8577948 107.4554348  37.2078419
 108.1504250  72.4774694  37.1630788 107.7319527  71.7555189  36.6941404
 107.4219036  72.9849195  37.5208378  59.6547318  26.8897605  72.4451017
  59.2990685  27.7749944  72.5231981  59.3872070  26.4520025  73.2532072
  96.6401005  79.5157528   0.8356392  96.3503551  79.2816877  -0.0461162
  97.0414734  80.3788471   0.7346407  11.1363256  24.8142362  49.2078400
  11.9915402  24.5697546  49.5614910  11.2356329  24.7278929  48.2597303
  40.6628275  26.3095379  48.8627434  40.6699467  25.6010342  49.5063305
  41.4541721  26.1688733  48.3429193  79.6846533 100.0711823  55.4625177
  79.7403574 100.6906891  54.7349644  79.6651745  99.2107773  55.0435066
   4.7084880 106.6304874  75.6258965   5.3190434 106.3115597  76.2905312
   4.0236005 107.0764923  76.1241293  14.9912024  81.6542912  81.6089630
  14.0380371  81.5987110  81.5409946  15.2195287  82.4504280  81.1291122
  35.7101059   5.1191956  67.0928049  35.4134965   6.0177928  67.2369432
  35.5079842   4.9447930  66.1735821  85.0439358 105.1729012  86.1071396
  85.0436115 104.3060112  85.7012558  85.5121803 105.7288074  85.4842854
  87.1640587  17.5950742   3.4554556  87.9331303  17.5737107   2.8859773
  87.4716187  18.0173278   4.2575428  14.1533673  95.0685120  65.0810909
  14.9474871  94.7621441  65.5189800  13.5680795  94.3111420  65.0890779
 105.8992481  98.3301830  10.4157436 106.6724014  98.1585121  10.9533274
 105.5813408  99.1808987  10.7181489  14.0786242 100.6754017  48.9885235
  13.4228837 100.2356911  48.4473276  14.4917226  99.9692059  49.4853783
 109.7377110  76.3174057  48.1510925 110.1937008  76.0454464  47.3546362
 110.4360962  76.5944004  48.7441969 103.8724899  68.5366344  57.9294825
 103.6132336  68.4771776  58.8489866 104.7215271  68.0963087  57.8910685
  82.1127796  68.5461903  42.0371723  81.1629772  68.6147881  41.9402075
  82.4346256  68.4024715  41.1472368   5.0750715  89.6785831  60.1473188
   4.1806152  89.4459248  60.3964186   5.4388136  88.8727665  59.7804499
  88.9745617  93.8058281  56.3131142  89.6302414  93.7329960  55.6195688
  89.4812107  93.9956951  57.1027279   0.7749216  93.1105137  59.6164799
   0.6949537  92.1763992  59.4234276   0.4095295  93.2054424  60.4960871
  12.4605083  19.8601162  29.8956823  12.8968513  19.8054624  30.7458878
  12.2924614  20.7943416  29.7723293  37.0564532  19.7950923  37.7084780
  37.0805573  20.6679988  38.1005049  37.8191710  19.7709060  37.1306300
  82.4544334  98.9361668  26.8382525  82.4996281  98.5132408  27.6957655
  82.6573563  99.8550606  27.0133972  94.2779636  73.1833982  53.7727404
  94.2264271  74.1108084  53.5414553  94.2669296  72.7259159  52.9320145
  65.7218456  26.3098884  82.7328587  66.3698387  26.3090444  82.0283413
  65.7344246  25.4144621  83.0709171 106.6352844  92.5207329  59.1258383
 107.5190926  92.2551346  59.3799496 106.2412548  92.8468609  59.9349213
  96.3867474 101.6178226  35.2351904  97.2788525 101.7259884  35.5648518
  96.2056160 102.4306488  34.7632265  10.2726996  23.8930941  66.7286634
   9.7824883  24.7151518  66.7407465  10.3313410  23.6628032  65.8014297
  25.5920839  91.7386436  79.7608042  26.2664127  91.3723946  79.1886330
  25.3585219  92.5723267  79.3525839  98.7141991  88.7988567  40.0986767
  99.4822121  88.2306862  40.0388670  98.0253124  88.3196449  39.6382093
  27.5042725  14.8451757  77.2980499  27.8278351  15.6238544  77.7510405
  26.7055488  14.6084106  77.7694511  63.0280733  96.5144730  62.8780985
  62.2286510  96.2934494  62.4002838  63.7250853  96.0661411  62.3991346
  17.4442637  91.4277172  60.6588602  16.9241023  90.6381893  60.8082342
  18.1745696  91.3531685  61.2731314  95.4852772  42.1449804  39.0331101
  94.7792530  41.5041351  39.1172504  95.2397346  42.8516483  39.6302390
   7.2296399  72.2852135  42.2653437   7.2102416  71.3916397  42.6079607
   6.3162923  72.4817181  42.0569849  39.5752859   3.7698534   6.2551540
  40.2635574   4.2124546   6.7517579  39.9571300   2.9249591   6.0172909
   3.5005853 100.8826256  67.2931480   4.1901931 100.4805660  66.7649221
   3.6590838 101.8236065  67.2178602  71.9795895  68.4881592  63.0170250
  71.1921787  67.9920626  63.2408762  72.2081375  68.9512014  63.8229942
  23.0271196   1.4511158  22.9006672  22.9328871   2.1453467  22.2484446
  22.4779034   0.7387761  22.5733042  24.2014837   6.1476266  57.0818615
  23.6851192   6.6885120  56.4843321  25.1104665   6.3215351  56.8374538
  21.8473411  21.2018871  64.1640997  21.7821360  20.3543687  63.7239981
  20.9574699  21.3840556  64.4660568   9.0477061  24.2857242  39.4816995
   9.3277520  25.1478243  39.7892547   8.4736478  24.4713783  38.7385821
  30.0936174  14.3693054  54.0863132  30.0305867  14.9626577  53.3378553
  29.1869283  14.2339623  54.3616867   2.2073667  80.4764080  47.0051908
   2.5067052  80.8618355  47.8286457   2.0317142  79.5601892  47.2194767
 109.8923492 102.6070786  42.3813009 109.6031189 101.8226242  42.8473520
 109.1273499 102.8807354  41.8752241  49.7766876   7.4522853  29.6143818
  50.5872726   7.4008590  30.1208854  49.6392536   8.3895308  29.4768548
 113.4188080  75.8612776  43.2334614 114.2631817  75.9248686  43.6798096
 113.0174160  75.0696850  43.5919285  14.3231320  90.5059242  58.2842636
  14.1213071  89.6182632  57.9883623  13.4962451  90.9805489  58.1992531
   7.8528142  88.8417244  57.6705170   7.6440996  88.8655090  56.7366505
   8.4144968  89.6041584  57.8099012 111.4736366 101.1693478  87.9011059
 111.1687374 101.7831898  87.2329235 112.4252605 101.1570263  87.7986526
   2.6099259  95.0824356  34.4430804   2.7308774  96.0279846  34.3562961
   2.0607704  94.8417282  33.6969423  88.8962841  96.2315941  69.8269320
  89.3302727  95.9788513  69.0120649  88.1519318  96.7641544  69.5466566
  14.5713043  98.6006927  70.5503511  14.4363368  99.2256546  71.2627029
  14.1512740  99.0071678  69.7923326  96.0348925   0.4378769  50.4946852
  96.0639319   0.5383274  51.4461565  96.7540679  -0.1614406  50.2950573
  11.4812994  25.3962588  25.0948691  11.3165450  24.7065973  24.4518614
  11.1268735  25.0498438  25.9137774 110.0169563  39.2348599  53.3032751
 110.7421875  39.2685390  52.6794720 109.2711353  39.5946407  52.8231335
  37.2744775  96.7909718  71.4069176  37.7469873  96.6446400  72.2264004
  36.6959596  97.5305653  71.5927887  19.1722989  31.6351628  51.9821119
  19.0866578  32.3705864  52.5887823  20.0682950  31.3231635  52.1089077
   2.4660105  85.2521610  33.2777596   1.5505356  84.9827957  33.2030702
   2.9127264  84.4855022  33.6367989  32.5527430  30.3843880  88.1312656
  32.7320075  29.4684601  88.3438015  31.6145825  30.4880214  88.2904720
 110.6315613 100.2796078  69.6940374 110.6153488 101.0109425  70.3113842
 109.9651146  99.6753216  70.0210238 105.8221149  61.2471962  75.9279680
 104.8913383  61.0956955  75.7638121 106.2692738  60.5869770  75.3984499
  83.4729385  73.8060713  41.2083864  83.2718468  74.6309090  40.7663059
  82.6407337  73.3333778  41.2235785   7.7964979 102.7861118  43.7764025
   7.0196229 102.7935696  43.2172632   7.4667490 103.0066967  44.6475220
  55.1537609   7.7667570  20.4987597  54.7910976   8.6352813  20.6730461
  54.6265268   7.1749473  21.0354352  36.3498878  24.2708135  76.6696262
  35.4506040  24.3740225  76.9808626  36.4626408  24.9708891  76.0266542
  60.8110952   7.4888712  57.9175234  61.0303450   7.9919243  57.1332407
  60.8532333   6.5751237  57.6355267  88.3301544  67.9827309  20.8930707
  87.8528881  67.7238083  21.6813684  88.1214619  68.9100933  20.7804871
  19.7621667  99.8609829  58.5027742  18.9501572  99.5090199  58.8674545
  19.8051238  99.4970417  57.6185036 111.7457104  86.4277172  54.9313831
 111.8996048  86.7697430  54.0507221 112.0652390  87.1159744  55.5148506
 101.2366581  86.9060135  42.8615141 100.6409645  86.4712334  42.2513199
 101.5601444  86.2017155  43.4232569 103.1340790  75.2121401   8.6520213
 103.9364338  75.6738997   8.4086329 103.3577538  74.2848778   8.5721105
  27.4930859  75.0582361  45.9388065  27.6071501  75.9105921  45.5184364
  27.7370405  75.2071524  46.8523359  54.4087839  13.5426283  19.3969750
  53.8897610  12.9027689  19.8842394  55.1633024  13.0467916  19.0790474
  53.8965178  33.1563687  77.9360867  54.1449451  33.7943792  77.2671652
  54.0108013  32.3065352  77.5107002  43.1432152   6.0652381  29.3994474
  43.7158871   5.3575277  29.1037703  42.2645044   5.7852155  29.1431618
 106.7110538  92.7863312  50.4793978 107.5257206  92.4137306  50.1421738
 106.8398476  92.8255177  51.4270830  29.5034814   3.7875900  39.2717981
  28.8951349   3.8176954  40.0101995  30.1972604   4.4033906  39.5077920
  90.8857346  42.2782373  85.7015896  91.6903019  41.7652845  85.6255436
  91.1365986  43.0415297  86.2218571  36.0497713  93.7640095  16.5123963
  36.6757751  94.4774342  16.6364110  36.0441875  93.6118221  15.5673885
 111.5710163  81.0285759  55.3607559 111.5612984  81.9071102  55.7406378
 112.1773052  81.0933781  54.6228886  42.0583010  15.8275616  45.1582384
  42.8622866  15.3454506  44.9648285  42.3291111  16.7453575  45.1815510
  27.2300816  11.7490530  35.9460092  27.9191446  11.1891687  36.3037133
  26.4444470  11.2024963  35.9630179  36.8766737  79.3891096  63.7324429
  37.5944424  79.9321604  64.0582323  36.0842228  79.8633385  63.9841557
 109.8775482  48.8779926  91.8375301 109.1910744  48.9638329  91.1760139
 109.4892693  49.2400551  92.6340103  22.0110250  29.4846201  12.8102446
  22.7053046  30.1021123  12.5802231  21.9068837  28.9398313  12.0301223
  48.7317276  26.8798518  67.9642296  49.3188429  26.1269212  68.0322027
  48.9260769  27.4059248  68.7399244  38.9082265  60.7622480  59.4566727
  39.8155212  60.6786108  59.7500181  38.7823558  60.0283527  58.8551855
  52.6172781  14.3852448  17.5419927  53.1192732  14.9542177  16.9584703
  53.2431555  14.1220748  18.2167137 106.2158585  85.6845856  39.6227407
 105.9571457  85.6985855  40.5442095 107.0578861  85.2293968  39.6172738
  19.8668396  34.2154598  43.3586550  20.6252003  34.7816420  43.2152748
  20.2357173  33.4059048  43.7118959  27.7261615 106.0101128  25.4346228
  26.8034792 106.1412430  25.6530094  28.1636691 106.7963409  25.7612038
  26.4378309   1.3142540  26.3214922  26.7844796   0.8262368  27.0684242
  25.5469728   1.5489472  26.5813398  31.6623664  21.3439918  34.6721458
  31.8653011  20.4155874  34.5576286  30.9354830  21.3552380  35.2948380
  37.3496461  57.5672054  23.0307412  36.9977403  57.0674849  23.7674022
  38.2772708  57.3326778  23.0035591  59.4303322  78.9903831  10.2183700
  59.6450901  79.5998716  10.9245133  58.4814739  78.8793468  10.2781212
   9.8662746  94.5019245   2.3732202   9.0323853  94.5943451   2.8340012
  10.1280081  93.5948753   2.5312594  44.6269464  81.7670918  51.8562126
  45.3663158  81.6920757  52.4594879  45.0146055  82.0842552  51.0405159
   4.0833580  71.4087820  53.4516001   4.1577399  71.1969090  52.5211096
   3.7804031  72.3166466  53.4670496  53.1533194   2.7955660  23.2652736
  53.1848097   1.8644583  23.4849977  54.0103245   2.9800707  22.8809118
  52.3694658  26.7491341  87.4571133  52.2817707  27.4757791  86.8402481
  52.1920729  27.1389365  88.3131599  88.2825089  40.4453897  57.8734303
  87.4584675  40.0260019  58.1210136  88.0737782  41.3787127  57.8336906
  10.1778305 101.7721176  26.3991928  10.5789447 102.1082115  25.5977058
  10.8717585 101.8283558  27.0561051  20.0817132  90.9740734  17.8677547
  21.0015345  90.7267952  17.7728045  19.9813747  91.1703014  18.7992370
  10.0066102  60.3714705  57.6466703   9.6456349  60.9838200  57.0056105
  10.2163112  60.9154558  58.4058380  34.9897742  96.4966011  68.6595201
  34.2714477  97.1282482  68.6950254  35.5724788  96.7561913  69.3731689
 107.4274349 103.3892536  41.2362957 106.5512657 103.5137653  41.6010761
 107.5142860 104.0809155  40.5803299 102.7803421 100.5375195  41.8643188
 103.4657860 100.2659798  41.2538481 101.9625282 100.3003120  41.4271212
  41.1067915  80.8446026  42.7674580  40.6771994  80.4313469  42.0185232
  42.0201731  80.9394360  42.4973249  57.9149914   7.9297566  58.5663366
  58.0424356   8.8608819  58.7479830  58.7979841   7.5604051  58.5780096
  39.9003649   8.2890648  66.0798168  39.5744133   7.7109206  65.3900766
  40.7295990   8.6245322  65.7391357 101.3578892  93.6101246  39.5820141
 101.4538765  93.0683231  40.3652573 101.6593838  93.0512619  38.8657713
  41.9994783   0.8956041  54.6897459  42.6012039   1.2437561  54.0317583
  41.9709158  -0.0449623  54.5143843  31.8988037  16.0502815  65.3802156
  32.4826503  15.5407572  65.9421253  32.0065427  16.9532359  65.6790447
  61.8060255  23.5611677  33.8668680  61.9090843  23.3062911  34.7837353
  62.2442389  24.4098020  33.8034701  10.1710272 101.4378643  43.2949495
   9.2797130 101.7656612  43.4146786  10.0574648 100.5205441  43.0462360
  50.1064682   2.4978091  12.6750505  49.3334436   3.0478135  12.5479460
  49.7544861   1.6458791  12.9330289  88.1743717  46.5243101  91.0176754
  87.6489258  46.1570120  90.3068829  88.2299423  47.4584627  90.8164215
  53.1682062   6.6546702  50.2921820  52.4371958   6.5852952  49.6781445
  53.3247757   5.7555312  50.5807400  41.5429401  14.5464551  30.2561665
  42.4400663  14.2980731  30.0332427  41.1844826  13.7772965  30.6990409
  23.6795735 102.8146553  30.8940148  23.4360456 103.7105465  30.6609893
  22.9384518 102.2821617  30.6051731  38.7294054  19.8696911  35.6761122
  38.9881349  19.3758476  34.8980331  39.4040179  20.5425024  35.7680583
  32.0802093   3.5383129  47.6321697  31.7423272   4.3353015  47.2236633
  32.8950548   3.8119715  48.0533171  37.3812008   6.3882881  31.5821743
  37.4370718   6.6736317  32.4941444  36.4429092   6.2949282  31.4174771
  27.2168207   1.7925830  44.3351460  28.0254674   2.2483042  44.1013908
  26.6397667   1.9279294  43.5835314  56.2007570  18.2830775  35.2430153
  57.1079445  18.5884213  35.2457047  55.6829739  19.0720177  35.0826836
   5.4227328  94.9144745  52.5941849   5.1133102  95.5413437  53.2480431
   4.6834868  94.8083782  51.9954443   6.0314190 101.7275429  78.9412832
   5.4866135 102.3223305  79.4566917   6.7058253 102.2899342  78.5603333
  37.3277807  10.4398787  52.0046091  37.3470163  10.4492009  51.0476494
  37.9100657   9.7204971  52.2488785   5.3364551  82.1153545  26.3672566
   4.4106695  82.3451042  26.2874627   5.3828770  81.2040901  26.0779858
  75.5620813   8.9792258  57.2432947  75.2285385   8.1408197  57.5627565
  74.7818375   9.4538140  56.9565487 101.8922329  91.8970585  37.4446821
 102.2202778  92.6966953  37.0333481 101.0046291  91.7974281  37.1004844
  29.9025106   5.3885734  36.6982865  29.9919415   6.0041457  35.9707522
  30.4587030   5.7505935  37.3880839  31.6917539   1.6047607  76.3921404
  31.1885190   1.4641833  75.5901289  32.4646783   1.0493686  76.2903643
  52.5155449  18.3141792  59.3492365  52.9501724  17.8024864  60.0315142
  53.1726837  18.9534521  59.0740442  57.6418924  10.9364200  63.9179420
  58.1628609  10.7039678  64.6865702  58.2011175  11.5337753  63.4212875
  45.7029390  25.5285287  28.3309555  45.9244156  24.6355915  28.5952330
  46.0764933  25.6184626  27.4542594  70.0000572  23.0807543  44.8297787
  70.7965422  22.6896715  45.1887989  70.3146553  23.7340927  44.2049503
  36.6018295  23.8121867  82.4988937  37.0367002  23.5606790  81.6841221
  37.2815633  24.2560005  83.0060673  24.6550107  85.5154324  52.7321815
  23.8008881  85.6401348  52.3184729  24.7789240  84.5663643  52.7444410
  23.2765627  94.6234322  25.9475303  22.8854847  94.4623756  26.8062210
  23.9325976  93.9332771  25.8498764  49.2871094  91.6219997   2.1255934
  49.7955465  92.4237537   2.0034720  48.5181236  91.8995380   2.6234549
   4.7323421 105.4604912  54.2914677   5.5466014 105.1330090  54.6735239
   4.1118398 104.7391129  54.3954992  19.4409120  98.7899590  52.1152687
  19.3261993  99.3995857  52.8442621  20.3748894  98.5805321  52.1228838
  60.4653597  27.4422145  41.7451620  60.7886744  26.5874314  41.4604712
  61.2104273  28.0314732  41.6273546  38.3854055  24.9370718  67.3260498
  38.0548644  25.7046127  66.8593025  39.3088460  24.8860097  67.0793056
  51.9854736   7.3324537  70.5290031  52.9364252   7.2572893  70.6081915
  51.7866755   6.9616646  69.6692181 105.9678078  89.3002415  41.2933731
 105.1967621  88.7959766  41.5530777 106.5938282  89.1639328  42.0045280
  37.3125243  29.5178866  67.9302406  37.4159122  29.7262049  68.8587570
  37.9442239  30.0835037  67.4860954  38.9264250   8.8653725  39.7034526
  38.7135172   8.0374575  40.1341009  39.6770382   8.6594522  39.1463089
  76.7826414   1.8708497   7.6556545  76.3075256   1.4421698   8.3675045
  77.5726223   2.2180323   8.0699301  86.7679596   5.8278841  43.2851458
  87.1652794   6.5875220  43.7109613  86.9559574   5.0974083  43.8744640
  42.5717354  79.1914654  20.5560756  43.1260681  79.8774910  20.1841617
  41.7179871  79.6089888  20.6701612  55.2889252  22.0728564  53.1815338
  55.6450272  22.4889112  53.9665937  54.5487738  21.5557170  53.4992981
 112.8310394  88.5308361  28.5370636 112.3875237  88.5240841  27.6888394
 113.5747433  87.9390907  28.4231925  54.2621899  25.1100874  63.1684113
  54.9003029  24.5612884  62.7124929  54.4957924  25.0310993  64.0933037
  31.9444489 106.0710907  45.0044250  31.0303140 106.3541317  45.0262451
  32.1924949 106.1333275  44.0820169  83.1282616  18.4981585  74.6524763
  82.5557232  18.3226860  75.3992319  83.5868835  19.3050277  74.8866940
  54.6738291  40.1007414  36.3488460  54.8444176  40.2712679  35.4225326
  54.7032070  39.1471267  36.4262009   7.1487981  45.4658556  87.3132038
   7.8896046  45.8748913  86.8658543   7.4074209  45.4446411  88.2345581
  40.0662994  12.9884326  55.0876427  41.0113382  13.1330884  55.0406170
  39.9474978  12.4292982  55.8554220  68.7788343  22.8141618   2.5912777
  67.9939747  22.8541112   2.0448077  68.9781380  23.7287378   2.7914289
  22.8886271  39.5375705  70.2122068  22.1715093  39.0990758  69.7542810
  22.4604082  40.2174568  70.7324123  42.5529909  37.3749757  57.1138430
  42.4188375  38.3204627  57.1793270  41.6710663  37.0134473  57.0258951
  97.1579838 102.5828457   6.0659081  96.8987274 103.3805275   5.6046814
  98.1002235 102.6809502   6.2030137 109.8680592  74.4704628  42.5110197
 110.2767372  73.6249352  42.3258257 109.7544098  74.4785166  43.4614134
  63.8449144  18.0610156  30.6902122  64.0601778  18.1549215  29.7622728
  63.7368011  18.9591539  31.0030890 109.1775513  58.4224176  55.7255840
 109.5485210  57.7498293  56.2967539 109.4250011  59.2500067  56.1380148
  53.6365986   9.0587735  65.2740669  53.8519430   9.0461725  66.2066460
  54.0428972   8.2660574  64.9237013  32.1295738  95.9189510  31.9753504
  32.6179147  95.1738358  31.6252756  31.2646627  95.8496761  31.5711689
  17.7403259  74.1838360  56.8890333  18.5084915  74.6448278  56.5519285
  18.0328715  73.8053083  57.7181101  61.6395855  23.7327433  61.5775919
  62.4948597  23.3408833  61.7541838  61.5750170  24.4572639  62.1997929
  45.7760000  14.0646982  27.4237752  44.9384260  14.4426596  27.6918149
  46.4314508  14.5683217  27.9064560  12.0322704  89.5094776  18.3583176
  11.9139600  89.3103313  19.2870677  11.3459682  89.0092087  17.9167771
  45.9848261  20.9205198  38.6156511  45.6661034  20.3067088  37.9539227
  46.5404701  21.5296817  38.1294274  21.9568658  51.6873264  46.4373016
  21.5423346  52.4326706  46.0027218  22.5689816  51.3414431  45.7877588
  17.4656034  81.7804337  71.1582088  16.7519403  81.3386345  70.6980658
  17.1261704  81.9283295  72.0409012  65.9690237  45.2837849  40.4171562
  66.4209795  44.8827839  39.6747494  66.6411400  45.3589249  41.0945415
  17.3613191 103.9948750  28.9766645  18.3162141 104.0184879  29.0387011
  17.1686721 103.1512928  28.5674191  34.2137933  24.7201514  61.8612623
  33.2694530  24.7740626  62.0080423  34.4177079  25.4890323  61.3288403
  25.4201865 101.3130474  12.3196971  25.8747077 100.5258369  12.6196039
  24.4920468 101.1172581  12.4479842  93.6618423  23.7175202  54.4824076
  93.0780792  22.9590416  54.4950390  94.5190334  23.3640027  54.7200727
 109.7518253  83.0800533  35.6670785 109.6684551  82.7505302  36.5618944
 109.2533302  83.8971996  35.6653428  26.5456128  89.9445629  23.8240623
  27.0511913  89.7424126  24.6113086  26.2821960  90.8578968  23.9365387
  60.7441568   3.6669180  32.9599690  60.3006077   3.0363923  32.3925757
  60.2202415   4.4646823  32.8870606  67.8462315  14.8809230  33.2938194
  67.7206469  15.8239961  33.1885910  68.1420326  14.7781384  34.1983461
  27.5767207  18.1376517  58.0551434  28.1743789  18.0796075  58.8005733
  28.0336928  18.6942029  57.4245405 109.5763683  82.0423889  57.7950573
 109.8131847  82.3898125  58.6549664 110.2523804  82.3783493  57.2065306
  26.8054605  92.0166588  21.5711832  26.5469718  92.5600433  20.8267713
  26.5941691  91.1232185  21.3003564  62.0723867  79.9442482  89.4362450
  62.2783756  79.0332222  89.2268753  62.0861578  79.9792004  90.3927040
 105.3599834   4.7196847  34.8108888 104.6420479   4.7634447  34.1793156
 106.1192894   4.4536772  34.2923188  16.3038051  76.4085245  59.1919661
  16.8468189  75.6937408  59.5243120  16.9085205  77.1443796  59.0967274
  67.8711891  40.0366974  74.5036030  67.0645285  39.6834016  74.1284847
  67.7295017  40.0045824  75.4497147  31.9976115 103.1451225  46.6089678
  31.6505241 104.0156078  46.8039560  32.9413128 103.2780552  46.5195894
 106.8225384  87.2265053  71.2688112 106.4492989  86.3530445  71.1505365
 107.3686123  87.1496964  72.0512056  49.2178822   1.7014498  64.7777510
  48.3467865   1.4813177  65.1078510  49.1891146   2.6480383  64.6385574
  81.6373253   4.1809022  67.8573418  80.7010078   4.0986940  67.6762915
  81.7013073   4.9265158  68.4541655  24.8382711  95.8404064  46.6072607
  23.9962769  96.1195660  46.9669104  25.2562547  96.6517067  46.3186264
  68.7898827   8.2353175  64.7760820  68.2664299   9.0218872  64.9294996
  68.5018444   7.6205474  65.4508591  69.6985483  29.1756344  60.9716129
  69.2483997  29.6018147  60.2422476  69.1765642  29.4031358  61.7410326
  61.6795540  11.9575489  31.3440204  60.8935022  12.4666405  31.5419626
  61.7525291  11.3377094  32.0697641  25.3725362   6.4155573  36.3592863
  24.9003005   6.0070342  37.0847750  24.7948384   7.1190840  36.0633993
  59.2299700  14.1264200  69.3562412  59.1853523  13.8557196  68.4391975
  60.0275040  14.6527791  69.4120598  43.2720089   2.7992460  19.1216707
  43.0209732   1.9158205  19.3914354  42.7633858   2.9606315  18.3270097
  45.0936413   1.2494931  48.1361341  44.5250368   0.4896507  48.0113888
  44.4906855   1.9785111  48.2817602  98.8596058  96.1255264  34.3468094
  98.3813381  96.6446686  34.9933219  98.3801937  96.2602711  33.5293484
  66.5656376  32.2881150  64.9196148  65.7140875  32.5181556  64.5479012
  67.0329905  33.1211877  64.9812841  93.6470845  30.6674914  92.5198341
  93.0532816  31.3975863  92.3449426  93.2393160  30.1958040  93.2461035
  59.7478199  15.1981902  15.9896290  59.9765444  14.3116117  16.2687290
  59.7496843  15.7115829  16.7975008  41.9602346  10.6923270  28.6737561
  41.1977959  10.4014850  29.1740918  42.5728559   9.9584675  28.7225008
  90.9086990  32.7029133  48.6826277  91.1303711  32.4484324  47.7868938
  90.1596546  32.1519351  48.9097452  66.2243938   4.2315736  38.9695144
  66.1549950   4.0075052  39.8975253  65.4520702   3.8329405  38.5684609
  14.3524837 105.3683186  57.2580290  13.9585853 105.1151276  58.0928802
  14.6094728 104.5397854  56.8534040  21.4709568  36.8145823  84.1579151
  20.9007668  37.5610733  84.3419456  21.6198158  36.4104319  85.0127506
  21.4078665   5.7032776  34.1464591  22.0257163   5.9698981  33.4657216
  20.6525421   5.3653067  33.6653233  31.1422157  12.3168051  44.0619898
  30.3927493  12.2594500  43.4693336  31.8654990  12.6067841  43.5061026
  32.3464870  94.7435951  36.2691784  32.4132919  95.0996208  37.1551919
  33.1230044  95.0754929  35.8185124   4.4788450  18.3938611  46.4076614
   4.3348581  18.2127297  45.4788494   5.3062147  17.9577100  46.6112852
  90.2923870   5.6993955  31.6694474  91.0211849   5.8772105  32.2639823
  90.4211235   6.3098127  30.9434652  37.9026008   2.7137539  37.7294445
  36.9500947   2.6427075  37.7920532  38.0742741   2.8139380  36.7931104
  51.9406796  95.0031757  29.5995235  51.7323685  95.0482941  30.5326915
  52.0915651  95.9130859  29.3435359   5.6849182 104.5476055  30.1137161
   5.6594276 104.7573185  29.1801190   6.4913499 104.9557018  30.4289317
 101.4810181  11.1183441  28.1913471 102.1192455  11.5166616  28.7831593
 100.7423496  10.8886790  28.7551355  68.7588453  31.7241311  69.3089628
  69.0768147  32.6249433  69.2484474  67.8368473  31.8113279  69.5509243
  28.1188250 103.7926388  42.4108505  28.8950014 103.5114288  41.9263935
  27.4928260 103.0776501  42.2961569  66.1447525  31.5718484  68.9957094
  66.1905384  31.4664936  68.0454302  65.6876755  30.7885027  69.3017912
  31.0641098  23.1045485  68.6465645  31.5116739  23.6760044  68.0225801
  30.3005099  22.7801371  68.1691694   1.4752209  19.2748582  43.8630342
   0.5180939  19.2809355  43.8529110   1.7101967  19.8148918  44.6176100
  49.8083162  39.8436546  31.5448880  49.1487312  39.4959807  30.9446335
  50.5775499  39.2925286  31.4007783 108.3811378  53.0189466  64.0716362
 108.9148998  52.3146725  63.7037659 108.8578892  53.2973719  64.8535681
  61.7286921  93.0653191  55.0919867  61.3513899  92.2222233  55.3431225
  62.6702595  92.9007149  55.0411081  22.5969267  78.3247900  56.5248585
  22.2348499  78.5568047  57.3800182  22.3871779  79.0724087  55.9651232
 112.2445297  89.7395706  66.6015577 113.0959892  89.8690701  67.0192671
 112.2320461  88.8119507  66.3657475  17.1087480  94.1087246  65.1198053
  17.3471296  94.0185642  66.0424519  17.8657818  94.5343399  64.7173262
  33.1413388  91.3456249  49.9922991  33.4191251  92.1955299  50.3339481
  33.6562347  91.2285233  49.1939259  62.9084969   5.3205061  23.2790756
  62.1236849   4.7778186  23.3552170  63.4299088   4.8935422  22.5993252
  23.6481857  68.4531689  42.6109123  24.2097974  67.7434444  42.9225445
  24.1953039  69.2361736  42.6724958  65.0046587   5.6074673  35.4862571
  65.4932451   5.9202558  34.7248936  64.5583105   4.8191649  35.1770878
  41.3587856  17.0695531  38.5161614  42.1934795  16.6032052  38.5613251
  40.7973146  16.5047801  37.9851127  66.5041494  34.7997022  34.9977946
  65.8000851  34.6570992  35.6304049  66.0793304  34.7172546  34.1440034
  47.2426939  34.6050334  22.5488544  47.1670723  34.5821285  23.5027885
  47.9777193  34.0240431  22.3528409  66.7272282  88.3973980  91.4700603
  66.8665123  87.5930119  91.9698524  65.8906651  88.7358475  91.7891979
 109.3674755  99.6057701  65.5127859 109.2595959  99.4720078  66.4544344
 108.5454082  99.2976284  65.1313686  68.9816666  21.2318420  50.0136375
  69.6359921  21.0123682  49.3503761  68.9537811  20.4648185  50.5855894
   2.1388523  71.0981321  63.2955456   2.5667620  71.6132641  62.6116180
   2.3712027  71.5425491  64.1108608 107.9478359  88.7543583  43.4172010
 107.8331089  89.4688320  44.0437698 107.8315449  87.9590130  43.9369440
  48.8645029  27.0826149  53.9416504  48.0540085  27.0716166  53.4325218
  49.2743921  27.9190969  53.7213707  96.8075180  99.5814896  40.0683451
  96.4942265 100.1675320  40.7572842  96.6139889  98.7028122  40.3950071
  80.2956390   0.4862748  24.9572206  79.6129799  -0.1817959  25.0195646
  79.9035025   1.2666979  25.3488803  14.7804999   2.0892777  31.8406057
  14.9158895   1.6175127  32.6623940  13.9838111   2.5995961  31.9858408
  68.6261511  27.3555899  43.6123037  67.8319645  27.2108150  44.1266346
  69.0963459  28.0418730  44.0857649  66.5852880  11.3159394  19.7551310
  66.7651749  11.8090928  20.5555511  65.6904936  10.9950829  19.8674846
  32.9178810  80.5639172  56.5513897  33.4003758  80.1166630  57.2466564
  32.7515912  79.8832893  55.8992147  58.1990528  20.2604365  19.9062049
  58.6361504  19.8433578  20.6486487  57.3834753  20.6042528  20.2707076
  72.2758579  11.7222285  13.9540005  72.4315357  10.8187282  14.2291033
  72.8028250  12.2495794  14.5543659  10.8616138  72.4359131  55.3621912
  10.7047045  73.2105589  54.8222494  11.6031027  72.6771307  55.9173822
  37.0605159   8.8874120  47.3040342  36.2339735   9.3500751  47.4418831
  37.4363732   9.2957270  46.5241337  49.7765303   1.5139917  21.9792485
  50.2830982   0.8965128  22.5068283  49.1788912   1.9273353  22.6023126
  29.6927786  86.3955212  57.9996157  30.0652075  87.1057796  58.5221624
  30.0521207  85.5981445  58.3885908  55.6913218   0.0873921  51.6083717
  56.3303504   0.6942341  51.2347269  56.0727272  -0.7790878  51.4669847
  27.3500276  85.3305817  24.4965935  27.4805093  84.4858170  24.9273801
  28.1568527  85.8153343  24.6706104  36.3446045   5.6995469  38.9043617
  36.5302181   4.8420531  38.5216308  35.5752635   5.5545557  39.4551086
  40.8295298   3.3537757  74.8731899  41.0059595   2.7491000  75.5939341
  41.1863327   4.1909030  75.1700783  41.9745922  72.6946306  32.0534205
  42.4074554  71.9146013  32.4004316  41.0502386  72.4518299  32.0000172
  43.7886572  27.1707463  35.5415201  44.5877314  27.0669746  35.0248575
  43.9445496  27.9541183  36.0690212  63.8665152  32.4040794  75.0855970
  64.6444845  32.7312207  75.5372286  63.6292553  33.1052756  74.4787502
  74.4323826  19.0594208  57.7338123  73.5538530  18.7521672  57.9574490
  74.2880630  19.8949897  57.2897100  67.8080702  28.1626225  10.5407894
  68.6665869  27.8307033  10.8034897  67.1853590  27.5410700  10.9178007
  38.3761692  93.7630749  37.6711202  39.1902041  94.2616367  37.6003361
  37.6904869  94.4293499  37.7173972  52.2285366   8.7333441  51.8843651
  51.4355755   8.6274093  51.3587999  52.7482176   7.9523885  51.6939116
  23.7620544  94.0525627  44.6353054  23.2610178  94.7331429  44.1858530
  24.4507504  94.5289326  45.0989914  55.7054806  20.8763671  29.8773909
  54.8024368  20.5631304  29.9286079  55.6890917  21.7271876  30.3156495
  17.8220856   3.2311821  64.8010635  18.1616819   2.4879141  64.3026066
  18.1397438   3.0869928  65.6924295  47.2325039  34.4382381  79.4637871
  47.3796749  35.2193952  79.9970436  47.9162169  34.4726396  78.7947702
  31.3728094  86.2932110  81.1415100  30.6557083  86.4833736  80.5366707
  31.4739990  85.3422165  81.1015892  20.4370356  98.7504578  49.0776682
  20.9674144  97.9949760  49.3310070  19.7148454  98.3774090  48.5721874
  42.4265480  22.3154759  31.0171366  42.5168371  21.8532252  30.1838279
  43.3253717  22.5148439  31.2790537  26.5558434 103.4853077  16.9632339
  26.2828040 102.5681782  16.9397831  26.7045045 103.6673069  17.8911400
  69.1301155  11.2863708  38.1336236  69.9094439  10.8384240  37.8046560
  68.4067726  10.6973636  37.9189610  33.2612586  11.0366189  18.6563754
  32.8804350  10.1923454  18.8980508  32.8539968  11.2516701  17.8172553
  57.8017807  40.8630276  22.9593635  58.3097363  40.8899355  22.1485043
  57.8151989  41.7646742  23.2804322   0.5358496  58.8147640  87.7628422
   0.3409537  58.6681986  86.8372345   1.4741611  59.0028858  87.7831745
  46.7936611  25.7128668  52.1277905  46.8853283  24.9558640  52.7063847
  47.0451450  25.3859663  51.2640095  46.7561054   1.1616432  53.5224962
  46.1955118   1.9104508  53.3193922  46.9414663   0.7635492  52.6719713
  91.8141270  89.7884655  88.7715435  92.2553730  90.1678562  89.5315361
  91.3747406  90.5298042  88.3548927  53.2209349  24.4959426  16.7738307
  54.0308380  24.6388817  16.2840796  53.4324074  23.7910748  17.3859358
   8.8194782   2.8373736  34.7571754   8.0460066   3.3051878  35.0720143
   8.7667710   2.9019114  33.8036084  53.1460285  22.6346254  60.0101662
  52.7674818  23.4884405  59.8005629  52.4617386  22.1842790  60.5053091
  82.6477623  22.2836494  52.7438688  83.1918049  21.7882228  52.1316576
  82.1665573  22.9000759  52.1918821  60.9019375  17.8555655  22.9147387
  60.7702446  17.3717475  23.7300968  61.8418646  17.7895236  22.7461886
 103.0091095  24.7959876  90.6742764 102.7031994  24.4199562  89.8488903
 103.2167721  24.0378475  91.2204647  50.6553745  23.7160802  46.0572243
  51.3175917  24.3265462  45.7331371  50.9247589  22.8649664  45.7118702
  71.3005877  10.2216268  69.9295473  71.6373920   9.8666620  70.7522202
  71.8754816  10.9617829  69.7348690  24.3661451  30.8024240  48.4919834
  25.1047087  30.4552484  47.9917574  24.7376585  31.0221124  49.3463516
  33.9758539  99.1795063  43.9284325  33.6441851  99.1397190  44.8254490
  33.2105064  99.0010834  43.3819532  55.5222225   1.0820076  42.9090452
  56.2328720   0.4569120  43.0521059  55.9397030   1.9402215  42.9826021
  51.6569090  14.7404313  66.2844133  52.2547245  14.6051157  65.5491972
  51.9262648  15.5781674  66.6610765  84.9870968  15.1240063  43.3352947
  85.0377464  14.5034647  44.0623379  84.0655708  15.1151192  43.0765772
  35.5830264  13.0775821  73.4001350  34.8454237  12.6804578  72.9370308
  35.9818172  13.6639500  72.7571964  25.2336192  10.9798336  69.9861002
  25.7510090  11.2024033  70.7600546  25.5077839  11.6144979  69.3240833
 104.6441936 102.3634815  30.1436138 105.5633450 102.5219917  29.9285221
 104.6478367 102.1673393  31.0804963  54.7876692  20.8833313  87.0821285
  54.8969221  20.2961946  87.8301716  54.7674274  20.3017592  86.3221264
  91.9955826 106.6462898  29.9386239  91.9476604 105.7150364  29.7225046
  92.1874046 106.6650105  30.8762217  42.6682806  74.7454453  44.6481276
  42.2586155  73.9111757  44.4192076  42.5164127  75.3040075  43.8857794
 110.6072235  90.8648777  21.9448495 110.9313011  91.7303371  22.1941996
 111.2625885  90.5310822  21.3322210  37.5336480 104.6428394  36.4317060
  38.1221128 104.0303612  36.8730783  36.6573405 104.3737698  36.7072392
  17.3811185  92.7749443  19.8148310  16.9284952  93.5000610  20.2456093
  16.6886556  92.1447754  19.6157992 105.2668858  93.1434155  54.7834349
 104.7457790  93.2901669  55.5728292 104.6916580  92.6406479  54.2067432
  59.7378445  17.7154100  41.7455196  60.5085230  17.1983039  41.5112352
  59.6953487  18.3985782  41.0764074  17.0752013  96.2637901  41.2306452
  17.9195940  95.8938026  41.4882183  17.2982502  97.0763874  40.7765818
  44.1434717  32.7755260   5.5365962  44.4506216  32.5659323   6.4186168
  43.2422829  32.4536872   5.5140150  40.6701422  26.6937351  19.4683623
  40.4555607  27.6225615  19.5547700  39.9741602  26.2417412  19.9453735
  37.9376292  67.2903919  61.1163664  37.0976973  67.1920156  61.5647697
  38.3233285  68.0778217  61.5003252  82.9868031  35.3341889  41.0018826
  82.8923798  35.5804205  40.0817299  83.5960388  35.9791803  41.3611174
  58.5765171  29.0344334  39.8809361  59.1862965  29.5324135  39.3364954
  59.1266870  28.3950377  40.3333950  24.3426394 103.3241463  10.5711508
  24.6728015 102.7415657  11.2551236  23.8234758 103.9761353  11.0419106
  88.1565952  25.1715493  87.6035309  87.2257805  25.1137519  87.3879623
  88.2081413  24.8953366  88.5185623  60.7577419  30.4489255  67.6922846
  60.7166910  31.1013103  66.9930410  60.2832174  30.8488011  68.4210920
  44.2901468  17.7150583  17.3177385  43.9899826  18.3499098  16.6672802
  44.2980480  16.8794203  16.8509650  30.1670861   8.2168472  49.0775490
  31.0704780   8.5312223  49.0416908  30.1839185   7.5132149  49.7262812
  93.2955074  33.6962342  75.5920029  93.8000393  33.0375361  75.1147127
  92.8610802  33.2058573  76.2898779  69.5198250  23.0319309  63.8402843
  69.7268391  22.1019864  63.9329195  69.2005396  23.2934189  64.7039461
  24.7547674  25.4102445  64.4104385  24.4458127  24.5590448  64.7206640
  25.7087374  25.3528953  64.4641304  80.2622032  10.6394327  44.9561262
  80.8710766  10.4593587  45.6724262  80.0749111   9.7797579  44.5791483
  35.6880069  99.2665863  25.0735879  35.2973413  99.9766350  24.5642328
  35.0796103  98.5348606  24.9702835  15.5358684 100.4034805  34.3617105
  16.0021710  99.9600124  33.6530995  14.6719909  99.9914360  34.3746400
  22.2871447 104.6172810  35.1716447  21.5507936 104.4239330  34.5914412
  22.5520873 103.7639332  35.5149078  65.4443550  31.3012934  40.8647728
  66.2983131  31.0210681  41.1941051  64.9197578  30.5008268  40.8478069
 110.1787567  58.1347561  87.0911789 110.2508545  58.0691195  88.0434036
 110.7722569  58.8475132  86.8546009  86.2493992  21.6103029  17.4156439
  85.7453728  22.4062586  17.5849056  87.1247768  21.9246674  17.1895432
  77.5264597  34.2524576  43.3384514  77.5351048  34.1535521  42.3864126
  78.4459066  34.1814709  43.5949850  59.5394564  17.7096319  35.7056665
  60.3129864  18.2683146  35.7815456  59.7827435  16.9011688  36.1566997
  50.0541306  24.4185328  30.7805490  49.7577143  24.8602462  29.9847722
  50.9807968  24.2376375  30.6230664  37.7308941  87.1457672  45.1765347
  38.3110332  86.4742565  45.5353451  36.8730426  86.9463825  45.5514574
  45.9222269  25.0250125  78.9365005  46.3248158  25.8452654  79.2217112
  45.2749014  24.8278284  79.6134949  49.0249109  24.8364067   0.4404291
  48.9990759  24.6552277   1.3799706  49.4480753  25.6923461   0.3731086
  69.8305511  19.6074653  45.5765343  70.3597546  20.0709414  44.9274063
  69.9592066  18.6810184  45.3731251  85.8565426  15.6540906  39.8962116
  85.0480461  15.6909978  40.4072857  86.2181377  14.7875547  40.0822258
  82.8400993  27.5268126   9.6575409  82.8029633  27.2958970   8.7293541
  83.6574268  27.1376753   9.9686456  88.5760212   1.6392893  47.9664993
  87.9934025   1.4434019  47.2327280  89.2535496   2.2015259  47.5908899
  70.5598354   6.5929705  69.9382210  71.1175442   6.9145483  70.6465816
  69.7787905   7.1448189  69.9789858  10.3843749  82.8471565  71.7389250
  10.1142502  83.5573673  71.1567974  11.3267589  82.9733753  71.8494463
  50.9248209  58.1464386  65.0764036  51.8640232  58.3282661  65.1091433
  50.8686876  57.2050190  64.9126530  99.7220516  11.2892032  91.4393711
  98.9085674  10.9847891  91.8416214  99.6584892  11.0066235  90.5270386
  56.1686563   6.1563331  46.8210030  55.7413721   6.7250711  46.1805391
  55.4580736   5.8596611  47.3895836  64.2610741  89.0995502  51.4339590
  64.2884541  88.7970161  50.5262375  65.0664616  88.7598228  51.8240499
  63.4075308  23.9129901  57.6963758  64.2713165  24.1588092  57.3651934
  62.8723240  23.8023090  56.9105387  32.0565557  20.3369236  11.9335592
  31.1332631  20.5876541  11.9635355  32.1003556  19.6652055  11.2530386
  87.3145008  12.7123868  33.1344461  87.2914886  13.4703183  32.5502872
  87.9617691  12.1267760  32.7415991  78.1928301  17.1516681  44.0355968
  78.3780432  18.0884957  44.1010332  77.3233509  17.0517719  44.4232225
  28.7199712  21.7813373  50.6691456  29.6571422  21.7602801  50.8627892
  28.4069824  22.5835109  51.0872221  16.4522457  24.3747139  21.7763853
  17.1266854  23.7350535  21.5479207  15.7117164  24.1541195  21.2114191
  87.7309132   5.9837025  40.7612848  87.5132561   5.7851362  41.6720152
  88.5165787   6.5277398  40.8159399  87.2419930  22.8539419  55.2260876
  87.1649170  23.4567165  55.9656477  86.3378811  22.6362872  54.9992609
  60.6941366  29.9268007  72.2437906  60.7914257  29.2352819  71.5891361
  61.4511824  29.8196626  72.8196716  19.4765794  99.2681885  21.7133188
  19.2671931  98.9729786  20.8271813  20.4079604  99.4863701  21.6792750
 104.9054241  35.1319432  63.0758047 104.6711540  35.3121209  62.1653748
 105.7969475  35.4688287  63.1648874  69.6025753  20.6779718  34.8673058
  70.1814985  21.2525463  34.3663645  68.8417149  20.5513906  34.3004727
  22.5020862 105.4327869  38.1291389  22.2047305 105.7828236  37.2893262
  22.7092218 104.5162296  37.9467607  69.6182728  14.7275233  72.9508877
  70.0263548  13.9521253  73.3361912  69.2966795  14.4308889  72.0995283
  77.5044918   5.0426161  41.0347462  78.1548500   5.1549435  41.7280340
  76.7396879   5.5288929  41.3427162  69.0306425  26.5911889  71.4025068
  69.8169947  26.1305690  71.1097336  68.6683559  26.9772887  70.6050682
  46.8752909  41.0567999  69.1411495  46.2482023  40.5110121  68.6666918
  46.5873623  41.0149479  70.0530577  65.8725357  36.5574479  64.5549917
  65.9318876  36.7367196  63.6166000  65.6789589  37.4078059  64.9495173
  28.3028698  21.5905666  18.7863731  28.2194090  22.5433254  18.7474287
  29.1786671  21.4412189  19.1426146  59.7268200  29.8139334  63.8806772
  59.1598177  30.1248431  64.5864201  60.5208635  30.3424025  63.9609623
  77.2051048  20.2235603  62.5592709  76.5163088  20.3289819  61.9030094
  77.0276213  20.9076929  63.2047892  22.7236009 106.7710590  58.2162905
  21.8261051 106.6672134  58.5324383  23.0569077 107.5343418  58.6880302
  50.7095146  21.7901063  38.6878514  50.9213161  22.6769185  38.9792919
  49.7564745  21.7884827  38.5987496  40.4006481   5.8487767  29.2432022
  39.6459103   5.4259992  29.6529078  40.0645065   6.1867106  28.4131169
  72.1896458   6.1575550  15.1461935  71.6436815   5.4534477  15.4960299
  71.9299412   6.9322675  15.6447983  77.4905443  17.6311255  69.5962286
  76.6594696  18.0259717  69.3323326  78.0169725  18.3671224  69.9083424
  12.9423094  87.6946735  50.5092621  13.1148255  88.5941315  50.7875299
  13.5310137  87.5564194  49.7672749  29.8781180   7.3391050  63.0561829
  29.1273308   7.0773166  62.5232506  30.6219387   6.8830466  62.6625204
  79.1396379  25.9907436  52.7935219  79.3315649  25.1672173  53.2420731
  78.4451532  25.7693601  52.1731091  74.6318483  25.7097197  31.1312819
  75.5390549  25.8521700  30.8612490  74.6965647  25.4018259  32.0352983
  34.1106558  27.4659348  39.0766072  33.3700871  27.4281144  38.4713316
  34.3902540  28.3811593  39.0560961  60.6287098  34.1972589  33.4068942
  61.4885426  34.4973135  33.7016535  60.6816864  34.2199850  32.4514318
  97.9867554  17.5346780  40.4196739  98.8154507  17.2263885  40.7863379
  97.3575592  16.8473423  40.6385612  67.5813198  30.9977245  44.3641090
  66.7274141  31.4277697  44.4103336  68.2119560  31.6994381  44.5257568
  55.1599598  26.3705277  11.5369976  54.4107676  26.9652677  11.5720046
  54.8954821  25.6205273  12.0697093  59.4400263  22.9329133  32.5770497
  59.1648006  22.2172713  33.1500578  60.2383709  23.2710385  32.9826999
  77.7682590  24.5088482  13.3252895  77.1378756  24.4760370  14.0448523
  77.6385927  25.3720307  12.9324389  80.1144981   3.8734132  80.0646496
  79.8416042   4.6700680  80.5197334  80.6939220   3.4301275  80.6843185
  22.9912591  64.7803593  21.5562725  23.5939336  64.0478325  21.4281487
  22.9263210  65.1907349  20.6939459  84.2632294  12.4650455  38.1009126
  83.5242653  12.5335097  38.7054563  83.8591290  12.3558426  37.2400951
  48.1547785 101.3041973  71.0863256  47.3894501 100.7723236  70.8681059
  48.4132099 101.7040730  70.2559423  32.4123716  14.5803893  34.1127920
  32.9344249  15.3824329  34.1332316  31.9399762  14.5808113  34.9453044
  57.3998928  52.9494667  35.2510333  57.4319792  51.9938993  35.2968216
  56.7250156  53.1970119  35.8830905  77.1270180  22.0446706  44.5234919
  76.6392279  21.2222195  44.4802666  78.0447102  21.7830944  44.4483566
  15.4686260  19.8110068  12.4421000  14.8643148  19.6813464  11.7111909
  15.2337742  19.1286707  13.0709827  68.7550163   7.5690740   1.8698239
  68.3374071   6.7142534   1.7644016  69.4336367   7.4244219   2.5292060
  33.2687354  89.4425678  35.3275108  34.0556240  89.6266747  35.8404875
  33.4774423  89.7566414  34.4477224  77.2961235  32.2120738  18.4488046
  78.2447243  32.2155118  18.5767925  77.1823168  32.2619009  17.4997020
  59.1241360 105.0560188  34.0148091  59.7706175 104.8960209  34.7023392
  58.9540529 105.9968853  34.0602303  58.1772709  19.9974215  50.7636118
  57.5614643  19.5689213  51.3580894  59.0247822  19.6047878  50.9728718
  10.9523189  80.8634090  69.8480940  11.6737998  80.3268814  70.1764774
  10.7092702  81.4177418  70.5896282  26.4843416   6.2439662  23.0690193
  25.8700228   5.5277294  22.9082441  25.9371614   7.0291203  23.0879712
  50.8155012  29.2221284  50.3518867  51.2801504  30.0352573  50.5497646
  51.4199114  28.5297275  50.6192780  72.7212381  12.7412379  49.7657585
  72.4227095  12.1502376  49.0745068  71.9174957  13.1249845  50.1164341
  79.1836309   5.2533853  33.8516498  79.8411942   5.8946729  33.5822201
  78.6310244   5.1377583  33.0786753  62.5753212  25.0254273  45.0593948
  63.0592155  25.2409267  45.8566618  61.6599512  25.1959562  45.2813196
  45.3954029   4.0379646  49.6881866  44.6119165   4.3059790  49.2080307
  45.6422186   4.8116925  50.1947975  65.3671074  19.1806173  28.0450606
  66.1140347  19.6562445  28.4085321  64.6294832  19.7829092  28.1419611
  73.0818796   6.7545569  68.0189466  72.8608179   6.0223472  67.4434185
  72.3832989   6.7642796  68.6732531  37.2862124 103.0721951  23.5681915
  37.4771762 103.8095474  24.1479087  36.9681215 103.4777832  22.7616262
  79.1863918  31.8851733  75.0496769  78.7346983  32.0629787  74.2247009
  78.5641050  32.1527791  75.7259750  74.1017294  19.7366428  30.2226686
  74.1411543  19.0074635  30.8415198  74.7118998  19.4931996  29.5264912
  62.0061636  31.4378190  54.6224594  61.1947489  31.8680525  54.8921537
  62.6827145  31.8389368  55.1679993  76.8537140  33.6106896  35.7055855
  76.4063406  34.4314766  35.9114885  76.1739159  33.0573130  35.3210330
  40.1474762  53.1142378  63.7007332  40.2784204  52.3257923  64.2274570
  39.5170736  53.6336756  64.1997385  67.0662165  12.1879029  91.0768223
  66.5073776  11.9182074  91.8056583  66.5487146  12.8423369  90.6076336
  29.1934848   6.6915721  41.3558578  29.3844843   6.5167463  42.2773695
  28.2537222   6.5305400  41.2713003  53.5317612  39.1603398  63.7914753
  54.1182852  39.8625302  64.0728188  53.7637424  39.0070605  62.8755522
  89.8259068  28.6857796  56.8459320  90.5840015  29.2687345  56.8049860
  89.0704250  29.2725706  56.8118334  37.6063108  30.6147599  40.1557446
  38.1593585  29.8722720  40.3988123  37.8232908  30.7850885  39.2391539
  38.7814426  25.1056147  75.4217243  38.7956882  24.3382978  74.8496628
  39.5144439  25.6425118  75.1205873  69.1368294  18.5062206  14.5420706
  70.0677443  18.3155322  14.6572554  68.9219475  19.0959907  15.2647245
  85.7912254  10.6644976  50.0602388  85.2942753  10.2136540  49.3775892
  86.5562057  11.0176206  49.6059895  78.1245661  24.4847393  60.0940800
  78.4775972  23.7384725  60.5785227  77.3157644  24.7082925  60.5546141
  63.9956999  35.3075385  44.9035692  64.1440821  36.2218809  44.6623325
  63.1467628  35.3112340  45.3457594  70.2507782  34.2372489  20.7442141
  69.8995733  34.8297024  20.0794673  71.1039448  33.9712691  20.4012895
  68.4618282  52.9761982  34.6518850  68.9800787  52.1956015  34.8476410
  68.5934448  53.5471058  35.4088378  58.6814690  24.1417909  63.2590294
  58.9702940  23.8290739  62.4016953  58.3540773  25.0259256  63.0936527
  73.8387394  37.7827406  38.3267736  73.0387688  38.0989242  37.9068804
  74.2982769  38.5780382  38.5961390  68.1963730  42.8089857  43.4097815
  68.6811972  42.9539204  42.5972700  68.0738020  43.6851978  43.7751055
  74.8810148  27.7710867  47.0963621  74.6002722  28.0748892  47.9595613
  75.4415035  27.0168281  47.2785139  45.9978771  23.2384944  53.4908628
  46.4734888  23.7748098  54.1252089  45.0799179  23.4807706  53.6128712
  58.5395193   8.8999349  46.7897415  59.0851974   9.5947701  46.4214039
  57.6593447   9.0887266  46.4643478  49.4517899  21.6242552  48.1570721
  50.0196457  22.3423696  48.4365034  49.2383718  21.8280816  47.2465038
  98.9047909  35.4094648  78.5452843  99.6870804  35.7977295  78.1534958
  98.5427475  34.8527908  77.8558826  95.4273129  43.2229376  64.1864634
  95.8431435  42.8047466  64.9404097  96.1526680  43.4302139  63.5972881
  54.1290998   2.4276145  27.2098875  53.2485104   2.7617505  27.3806167
  54.5153761   2.3156655  28.0785012  39.3016934 104.7761250  46.6604757
  38.5890293 104.6326828  46.0377645  39.6525598 105.6360912  46.4289999
  67.8794289  18.9134598  12.2632802  68.3537769  18.6442888  13.0498981
  67.4606657  18.1117511  11.9500172  69.7860670  17.8711617  28.7590551
  70.7423067  17.8799915  28.8010502  69.5650578  18.5998380  28.1790400
  28.1079388  38.6330009  52.6785612  28.5138345  39.2493534  53.2881403
  28.0368066  39.1198969  51.8575239  85.2339268  49.3019724  90.4599380
  84.8173523  49.0148258  91.2724972  86.1122799  48.9230967  90.4942131
  52.2232914  18.6578798  35.8646154  51.6256905  18.6082613  35.1185274
  52.6781464  19.4925475  35.7520604  42.0600557  37.1139359  71.4504433
  42.8895807  37.0834303  70.9738016  41.4403629  36.6563916  70.8822298
  92.4615765  27.3646545  92.1021271  91.6121483  27.8009677  92.0363235
  92.9120350  27.8231335  92.8114414  41.4408207  10.3217578  74.3956184
  41.1518431  10.2133262  75.3016901  40.6297016  10.3697085  73.8896370
  59.9395132  12.9461050  27.4704099  59.0643024  12.8168857  27.8358364
  60.4618025  13.2646942  28.2065821  18.7592161  48.0184460  40.6921721
  18.6056554  48.8943768  40.3380680  17.8910947  47.7090740  40.9507990
  97.5929546  21.2245703  19.7487223  96.8169212  20.7593131  20.0610423
  97.7404022  20.8801126  18.8679039  75.2196217  14.6784306  59.8527718
  74.7808695  14.6284246  60.7020235  75.9376478  14.0486765  59.9166918
  46.1187553  27.2290039  46.1357403  45.6298494  26.5319872  46.5731907
  46.8267536  26.7746878  45.6790447  73.8719177  11.7323184  21.8784165
  73.9484310  10.9708595  22.4533582  74.7737694  12.0251381  21.7474580
  27.9221630 105.2995682  53.6599350  28.6400676 105.9061623  53.8412714
  27.1961403 105.8617020  53.3895111  24.5965743  99.1304207  53.6972570
  23.9991760  98.7833118  53.0347872  24.6901536  98.4195614  54.3314075
  74.8006725  31.7526340  34.8332000  74.2802620  31.3400245  35.5225182
  74.2731380  31.6502762  34.0410733  84.7349644  26.1597633  59.2512655
  85.5038166  26.5540433  59.6631336  84.5368004  25.3970838  59.7946644
  58.4076357  27.8603554  33.8445735  57.8972816  28.1702948  33.0964351
  58.4921217  26.9174957  33.7027740  16.5906227  95.8504581  59.7115564
  16.2281561  95.6428719  58.8503027  15.9248078  95.5503368  60.3303003
  35.2919507  34.6503043  66.3393545  35.6209612  35.5490303  66.3228226
  35.6425309  34.2522073  65.5425835  56.0245609   7.2319007  61.5013504
  56.0491848   8.1153810  61.8688965  56.2410069   7.3510861  60.5765963
  80.9371185  36.8044090  26.8236566  80.0304031  36.6445804  26.5618086
  81.3199902  37.2773194  26.0847402  67.2943783   1.4627847  74.2763472
  67.1383333   0.5239657  74.3788195  68.1826591   1.5954730  74.6073818
  55.4267406  21.3297462  45.6290770  55.5633259  22.2498107  45.8550406
  55.6848145  21.2681246  44.7093868 104.9759674  95.5128098  42.7451992
 104.3268776  95.1948738  43.3727503 104.5299149  95.4746151  41.8991470
  87.6732445  33.6851358  25.7142782  87.3781395  33.0052304  25.1085758
  88.5452557  33.9238882  25.3999329  58.9851570   1.9838163   4.6424443
  59.2988777   1.3313091   4.0163100  58.8603973   1.4947462   5.4557574
  61.1173439  97.0386600  25.7885718  61.1135674  96.2527752  26.3350177
  62.0133209  97.3696232  25.8511901  34.4270492 106.9482136  41.5589333
  33.9107060 107.6310921  41.9870615  34.2339206 106.1540699  42.0571995
  97.2648048  42.0480251  24.1112494  97.5077057  41.1222410  24.1237020
  97.3893547  42.3404884  25.0141239 101.0740695   0.1832077  45.6738377
 101.6853461  -0.5088356  45.9261179 101.6339860   0.9212753  45.4330397
  71.9764900  37.4693632  15.3212893  72.2271729  37.6216650  16.2324381
  72.6149321  37.9673576  14.8107755  40.0766230   7.9687095  68.7813234
  39.1519618   7.8457099  68.9960480  40.0753307   8.2396317  67.8632641
 100.6364536  98.3796597  66.4622736 100.2723122  99.0087700  67.0850515
 100.7952023  98.8919640  65.6694508   2.8137755 102.2768116   3.9495128
   2.3971093 103.1303692   4.0680921   2.2450060 101.8162823   3.3325478
  10.0973701  93.6150265  39.5391870  10.3258991  93.6858654  40.4660034
   9.4102192  92.9491997  39.5121503  63.8538361   2.0867534  28.3393693
  64.5208645   1.4055496  28.4246063  63.3015585   1.7919180  27.6152873
  72.3692989  16.9263017  29.7243834  72.8288221  16.6393566  30.5135155
  72.4499989  16.1893463  29.1188955  92.8561592  35.5161691  61.0133791
  93.0459213  34.9229646  60.2865124  93.5191631  35.3081155  61.6716814
  25.7341337  48.9851856  57.0089531  25.8380532  48.1070900  56.6423750
  26.1315680  48.9304924  57.8780270  78.6291456  22.7385283  30.4267097
  78.9200783  22.4946976  29.5479965  78.1973267  21.9530725  30.7625985
  76.2059498  68.4597397   3.8217285  75.5763102  68.6455917   4.5183215
  75.6702185  68.3613539   3.0346182  35.2319598  15.6401443  11.8442917
  34.7634029  16.0974514  12.5425446  34.7567511  14.8162341  11.7366779
  84.6915150  22.6250577  54.2649174  84.0576172  22.6396441  53.5478401
  84.5205021  21.7999697  54.7190237 109.8989773  50.6631660  55.5055285
 110.0299072  51.6021538  55.6373978 108.9729500  50.5206203  55.7014418
  83.3870411   6.3199240  54.2276716  83.6819458   7.1648943  53.8881254
  83.8327599   6.2315792  55.0701427  91.1684799  35.0279427  85.4566669
  91.7805290  35.0196767  84.7207546  90.3408623  34.7248363  85.0832939
  14.8053908 102.5091457  15.8124030  15.0553751 103.3900642  15.5336273
  15.0461948 101.9474316  15.0757086  46.0787868  38.6231303  56.3055944
  46.7196131  39.3233442  56.1820030  45.2354479  39.0338993  56.1151171
  59.5135641  30.5063486  33.9828467  58.8514519  29.8347449  33.8191891
  60.1861429  30.3459382  33.3209252  50.7379436  14.0869832  50.7381296
  51.6905928  14.1558373  50.8009720  50.5882120  13.2831395  50.2404881
  39.9345517  63.2983017  21.6522980  39.8715568  64.1380596  21.1972547
  39.7604108  63.5092783  22.5695753  25.5897999 106.8180370  74.8585033
  26.5068412 106.8562031  74.5868254  25.6138587 106.4167595  75.7272005
  62.0541143  93.1935120  65.0817728  62.9162121  93.2758808  65.4894924
  61.5852642  92.5702763  65.6367397  66.0142088  13.2553196  58.9069748
  65.5720282  12.8375304  59.6459961  66.1566496  14.1578627  59.1922092
  28.8606262  89.5897579  25.7627177  29.6841884  89.1734123  25.5084920
  29.0827680  90.1071644  26.5367794  40.0124407  10.2443790  33.7855124
  40.7928801  10.7188272  33.4990811  40.3258801   9.6646923  34.4797397
  71.3204288  33.9784122  43.2961082  71.4553118  33.1608796  42.8168583
  72.0967960  34.5024729  43.0990171  57.2056007  38.9867711  56.0365963
  57.6164198  38.1557846  56.2751770  56.8908024  38.8504720  55.1429749
  38.4538579  28.6390495  52.9138422  38.5742950  29.4649720  52.4452496
  38.4353495  27.9738188  52.2258329  46.7581749  91.9239807  33.3790827
  47.0385885  91.1663246  32.8657103  46.2634516  91.5495872  34.1079903
  65.1576090  34.4770026  49.8921728  64.2770004  34.6691728  49.5699453
  65.0997972  33.5826063  50.2282429  45.5990410  12.7094471  60.0216675
  45.2297544  12.2636127  59.2593765  45.4834509  13.6408591  59.8336744
  24.8527193  14.7666788  69.9643898  24.6578598  15.6061494  69.5477962
  24.0004277  14.3403590  70.0542974  29.8955894  14.7555971  45.9881687
  30.4009557  15.4387355  46.4288044  30.5215287  14.3390322  45.3957987
  50.2597713   5.3919196  51.4074945  50.9909725   5.2138066  51.9989777
  49.5627165   5.7144707  51.9787216  63.2330704  28.7738919  65.1423502
  62.6878357  28.4055090  65.8375072  64.0921021  28.3725667  65.2736473
   7.7533728 102.1673203  68.2554817   7.1216667 102.7097893  68.7276173
   7.8231657 101.3695812  68.7798548  48.3401966  17.2264123   5.5053312
  48.5056210  17.9495132   6.1103028  47.4102306  17.0289445   5.6166929
  59.1153336 102.4606419  44.6379328  59.3794012 102.9443836  43.8553095
  58.8449383 101.6031361  44.3096113 104.5441341 100.3590393  45.5492067
 104.3863583 101.2417221  45.2142334 105.4678535 100.3596592  45.8001566
   0.4043218 100.8160591  33.0601192   0.0822805  99.9651814  33.3576441
  -0.0381279 101.4502335  33.6242986  54.1014385   5.1130009  56.8316031
  54.7856092   5.6178051  57.2712755  53.2833338   5.4478127  57.1988058
  47.2609711  24.7958326  66.7753410  47.6374197  25.6654477  66.9105768
  47.9832935  24.2738247  66.4260769  42.0903068 100.2092678  93.0856024
  41.5088844 100.9477217  93.2668811  42.2782272 100.2765781  92.1494469
  51.2979031  25.6980062  33.1727314  51.3157225  26.6495466  33.2751107
  51.0375118  25.5599308  32.2620392  15.9674668 101.7238235  27.9303932
  15.3415728 102.3031807  28.3649445  15.5687439 100.8554173  27.9863071
  54.5007133  90.1985741  30.9884882  53.5940838  90.5052662  30.9745812
  54.5568371  89.5837879  30.2569699  25.4687953 103.0171490  37.8988647
  26.1143851 103.1999969  37.2162127  25.7653904 102.1982002  38.2958436
  22.1379638  10.1676142  27.3223615  22.8594470  10.3484762  27.9248405
  22.3992658   9.3657470  26.8696356  51.6563511  32.7928448  44.9886465
  51.7978191  32.8476071  45.9337473  50.7192612  32.6208925  44.8963022
  86.8546963  11.1764085  82.3527336  87.5924873  11.2037623  82.9619694
  86.9125652  12.0005536  81.8693447  58.9490318  49.2446089  24.9648523
  58.0215025  49.4796896  24.9904943  58.9748526  48.3378983  25.2705383
  66.4083672  50.2507401  32.4833035  66.9401503  49.9736309  33.2293940
  67.0138311  50.2439737  31.7419553  61.8009233  15.7389975  55.7203674
  61.6510344  14.8493755  55.4004622  62.6614046  15.9760833  55.3745461
  89.3354797   3.5901454  34.9509645  89.0588474   4.0880701  34.1816974
  89.4708061   4.2522317  35.6288743  41.7267990   9.4171971  44.6172333
  42.1280622   8.6684823  45.0584221  41.3257694   9.0455174  43.8315773
   1.9286732 107.1472168  72.5229931   1.4864597 106.5537167  71.9160080
   1.5837619 106.9101048  73.3838320  54.0816593  34.5484304  25.7018852
  54.3718863  35.2602482  25.1315212  54.7516346  33.8722849  25.6009245
  51.9387054   0.2722638  68.9380598  52.4782419  -0.5136479  69.0245056
  52.2179127   0.8350902  69.6602106  49.8090029   2.8119010  60.1077175
  48.8683367   2.6347941  60.1040697  50.2138376   1.9594856  59.9473190
  78.0554390  27.6318955  60.1614428  77.9166317  27.9922152  61.0373020
  77.8921700  26.6938567  60.2597094 103.9575386  21.7690945  81.6217899
 104.1441154  20.8929849  81.9592094 104.7151470  21.9822955  81.0769939
  51.8694305   6.8850517  62.4976254  51.4537191   6.1671585  62.0200872
  52.6830578   7.0501709  62.0212030  84.7034645   4.1936532  37.7695823
  85.6394863   4.0229431  37.8742886  84.5344448   4.9524298  38.3280802
  63.4847116  24.2551827  65.1629972  63.1086063  24.1142154  64.2941427
  64.3753195  23.9106107  65.0972462  75.9220791  23.7199116  22.3765564
  75.1449060  23.1637430  22.4305439  76.3720369  23.5843110  23.2104516
  62.8368998  32.7013588  26.5639114  62.9105616  33.3957148  25.9091806
  63.5284519  32.8946519  27.1968651  68.9679909  42.8106546  40.9734631
  69.7970104  42.6203871  40.5344152  68.3008623  42.4359417  40.3983450
  29.4648299  -0.0478294  91.4381695  28.6388430   0.4159805  91.3008499
  29.6000609  -0.0208690  92.3853779  86.1653328  31.3551450  32.0153522
  85.3188896  30.9158659  31.9328690  86.6340542  31.1244750  31.2132788
 104.5070648  15.2038634  16.8884039 104.0752983  14.9413526  17.7013600
 103.9245224  14.8914361  16.1961150  57.0402622  53.9076281  14.4822836
  56.1720085  54.1446781  14.8081267  57.0113850  54.1177559  13.5488796
  61.6603279  30.7319641  47.0132017  61.4396095  29.9628544  47.5385475
  61.7900038  31.4307785  47.6543522  81.6976738   6.3874769  40.3979540
  82.5388432   6.8439114  40.3796911  81.8977928   5.5040187  40.0886154
  56.3795614  28.0919743  56.3296318  55.7864761  28.4390140  55.6632614
  55.9483862  28.2905197  57.1608353  46.6946220   7.9697323  27.0736146
  45.9999323   8.1839991  26.4509392  46.7476511   7.0142072  27.0538378
  65.9143543  27.7561903  55.7836485  66.5978050  27.2461104  55.3489685
  65.7974529  27.3268151  56.6311169  48.5619211  24.7482443  38.2361174
  47.8864813  24.4763732  37.6147485  49.2795372  25.0638819  37.6869106
  77.1362972  11.8535292  18.8455606  76.3017368  12.1756947  18.5050535
  77.7813148  12.1206713  18.1907129  88.3131123  17.7312243  61.8456125
  88.8182735  17.1849036  61.2434673  87.9333019  18.4119487  61.2901020
  81.0026455  31.4384222  48.8030291  81.4844322  32.2608709  48.7153339
  81.1729622  30.9726024  47.9843521  80.8153725  34.4103813  37.7196789
  79.9954557  34.4043469  38.2135677  81.2419319  33.5860133  37.9535580
  49.2076015  23.9568901  60.9092283  49.3415165  24.2212152  59.9990463
  50.0909042  23.8923359  61.2723303  39.1857409  45.5355692  29.4516826
  38.8459516  45.8768082  28.6244416  39.4430971  46.3147402  29.9445248
  91.6508579  19.8839235  54.1613579  92.1870899  19.7097504  54.9348927
  91.1024666  19.1047621  54.0696955  86.2893963  29.6232319  49.1312933
  86.5156174  28.7072754  49.2927790  85.4558468  29.5849729  48.6622906
  12.9862583 101.4009190  57.6808643  12.5619411 100.5475998  57.5912905
  13.3518827 101.3949299  58.5654640  64.1889048  13.6451674  32.4455547
  63.7667894  14.1872478  33.1120372  63.5735464  12.9274893  32.2955513
  88.4479237  53.6245489   8.7119848  89.2400265  53.5073805   8.1875145
  88.5649204  54.4747496   9.1358906  25.3223920 105.8662891  38.4649253
  25.7471800 105.0186348  38.3335423  24.4413185 105.7503510  38.1092620
  31.7520285  33.5766125  84.5032024  32.0315385  32.8117704  85.0063133
  30.9196329  33.8332200  84.9000645  52.1578598  45.6051683  22.2716522
  51.2729406  45.8350039  21.9882345  52.7307177  46.0107613  21.6208386
  80.9434223  25.6451654  58.6246681  80.0538254  25.3310394  58.4629393
  81.2363052  25.9816122  57.7777576  57.5784969  28.2198429  23.5126376
  58.0485487  28.4998703  22.7272272  57.2752333  27.3353863  23.3077002
 103.8017178  37.3849821  39.4600081 104.0130138  38.3185482  39.4661093
 103.7003136  37.1684146  38.5331607  49.6202564  50.8209276  11.8111157
  50.3954124  50.5013466  11.3493478  49.9618530  51.1901808  12.6254833
  41.5328932 100.8117867  47.9450750  42.4877739 100.8610153  47.9898739
  41.3336372  99.8869610  48.0907202  77.4207401   3.3396140  54.9552488
  77.6036406   3.0174610  54.0726423  78.2767248   3.3657563  55.3828478
  54.4491625  62.3331976  20.0171947  54.0706158  61.4740372  20.2036762
  53.7419033  62.9515123  20.2007985  62.4396086   6.0883999  47.3491907
  62.0242310   5.3189534  47.7386045  63.2607460   5.7584399  46.9843769
  99.0120602  23.8792610  38.9554477  99.2460251  23.7194085  39.8697448
  99.8194695  23.7128472  38.4689903  84.1802502  40.0116825  24.3890405
  84.5132065  40.4359961  25.1798224  84.9431038  39.9425769  23.8150144
  44.4054222  99.3712711  68.3432531  44.3592787 100.0107765  67.6325178
  43.7446404  99.6630955  68.9712954  67.6673889  10.0866687  62.2087145
  66.7160940   9.9830192  62.1857071  67.9177046   9.8057979  63.0888748
   0.9257697  32.7681112  26.7541528   1.5756221  33.1808043  27.3230171
   0.3281027  32.3242998  27.3558640  11.5206099  35.5227947  14.7260392
  10.9553754  36.1807013  14.3211913  10.9911823  35.1548290  15.4335272
  71.6210461  22.3489046  56.3391590  71.3675261  21.4597607  56.0913992
  72.5225115  22.2632623  56.6494131  30.6324482  97.8281403  49.2727423
  31.2386107  98.5376072  49.4859695  29.8451662  98.2722855  48.9578581
  77.9233456  15.3852832  53.8327217  78.8062143  15.7201529  53.6757803
  77.9474640  14.4850421  53.5083532  44.6842861  43.6832142  69.7763634
  44.5262384  42.9126740  70.3218174  44.3273258  44.4126463  70.2830553
  48.2965708  27.2844768  60.7238531  49.1885710  26.9377279  60.7421875
  48.4062290  28.2319808  60.8041239  81.0187817   0.8429062  60.3437138
  81.1418343   1.4772359  61.0499144  80.0801468   0.8702160  60.1580954
  77.6470089  29.9487972  47.8890562  78.1903839  29.6217299  47.1721125
  76.7501736  29.7506452  47.6195145  70.2646112  33.5710692  38.4383631
  69.9309635  32.6771522  38.3620667  71.1645269  33.4653163  38.7469101
  82.5596142  60.1567364  14.2050743  82.2385216  59.7470617  13.4017694
  83.2101250  59.5417929  14.5440626  88.0305576  55.1561737  63.1576967
  88.2368374  54.2611265  62.8883076  87.0740891  55.1933289  63.1528902
  76.3654566  25.2780771  48.0823565  77.1311522  24.7564793  48.3229303
  75.9220552  24.7577071  47.4124002  84.0540314  30.3327060  73.4541464
  84.5696545  30.4963303  74.2438221  84.6128464  30.6319737  72.7369308
  88.0469704  35.8121538   9.4033408  87.3865700  35.9110403  10.0891364
  88.7431145  36.4203691   9.6517140  55.5731153  31.6828918  57.4575472
  56.5221453  31.7388511  57.5690651  55.2220106  31.7755151  58.3431959
  90.3866386  15.2583468  51.5691662  90.6132221  14.4115555  51.1846733
  91.1637878  15.7997942  51.4309597  48.2439518  62.8261757  12.6691043
  49.1230774  62.5248337  12.4398422  47.9019690  63.2052803  11.8594384
  63.8619566  21.2296987  29.2687368  64.1691542  20.8645463  30.0985122
  63.1490564  21.8188095  29.5156169  91.1546135  23.1537199  43.1992149
  91.9316578  22.8328061  42.7415562  91.1496925  24.0960193  43.0310535
  56.3354731  31.4289427  48.8503361  56.0265398  31.8745399  48.0615187
  57.2887278  31.5066028  48.8115072  32.1220183  87.5487900  68.1916237
  32.0308089  86.8590355  67.5342464  31.2492204  87.9367542  68.2543993
  68.2127523  97.8033638  47.8891087  68.0569983  98.7056732  47.6101589
  68.7550783  97.8854179  48.6735725  70.4504347  25.5540419  43.9112616
  69.6698332  26.1078835  43.9238548  71.0926819  26.0566902  43.4101725
  57.8280020   1.4825800  23.3395267  58.6718512   1.5098524  23.7905312
  57.6289511   0.5496851  23.2600331  73.3905125  24.5669150  62.8609419
  73.6626148  24.0762901  62.0853901  72.9692221  23.9150429  63.4211254
 103.0626202  15.0598681  84.7464657 103.8347340  14.5923853  84.4278240
 103.1797695  15.9569263  84.4337463  66.7716932  34.5804644  73.9446545
  66.3514376  35.4305458  74.0749502  67.2394848  34.6693134  73.1142855
  60.6912327  22.0323372  42.2034121  60.4132509  21.4193940  42.8840446
  61.6356325  22.1207809  42.3319387  57.9220629  24.8298478  50.8209562
  57.8654003  24.0156817  51.3211107  58.8319206  25.1097250  50.9212494
  70.0253916  43.8035822  17.5157154  70.8003092  44.2149448  17.1329510
  69.3320751  43.9545250  16.8732536  40.7463217  22.3201871  52.3332262
  40.0840950  22.0156980  52.9536915  41.5050888  22.5313687  52.8772020
  96.2600994  17.3743188  71.4093685  96.9479656  17.9529083  71.0802794
  96.7323399  16.6582847  71.8342304  28.9841342 103.9998245  33.5613537
  29.2558074 103.1542397  33.9183021  29.8024082 104.4266796  33.3074617
 101.8308353   5.4178619  68.7114573 101.8038559   5.5343449  67.7617550
 102.2931957   4.5893627  68.8381100  74.8353910  38.1271839  34.6743655
  73.9921284  38.4863448  34.9503064  75.0195646  37.4341464  35.3084087
  50.2205467  18.5136175  53.0825615  49.7188663  17.7992463  52.6898527
  50.0998688  19.2493188  52.4822187  54.7338057 105.9331036  73.6809492
  55.4602480 105.7862282  73.0751944  53.9926434 105.4782963  73.2808733
  41.4309311   6.8253660  60.0639772  41.5230751   7.0252156  60.9955359
  42.3303127   6.7609781  59.7427273  63.5733223  35.7795930  39.5322204
  62.8028584  35.2431488  39.7188902  64.2707729  35.3882980  40.0582314
  40.4627371  92.0740795  56.3841200  39.8477006  91.3752651  56.1613703
  40.1005840  92.8545761  55.9647131  51.2917900  19.4956100  55.5166912
  51.5372467  20.4203415  55.5458498  50.9592009  19.3639672  54.6288347
  63.9338923  28.3016491  53.8843155  64.7946358  28.0820084  54.2408514
  63.4152508  28.5533404  54.6484470  75.7521248  40.9744167  36.4036775
  75.9609365  41.8674040  36.1294508  75.2607107  41.0826397  37.2179437
  89.5230961  22.5961208  58.4626865  89.0708828  23.0011868  59.2027235
  90.4478931  22.6123548  58.7091160  73.3294773  24.7755527  48.2814503
  73.9461851  24.5791626  47.5762272  72.9700136  25.6328917  48.0534410
  35.6973076  40.5628061  39.6178985  35.6308889  41.2870693  38.9955926
  36.6157985  40.2963066  39.5781088  45.7662630  93.5746288   9.1561562
  44.9597502  93.4545898   8.6548007  45.4747629  93.9215279   9.9993157
 113.4814262  28.9577127  48.8702345 113.3587265  28.1308770  49.3366194
 112.7280521  29.0153193  48.2825804  97.3145580  21.8379402  39.2785525
  97.9589272  21.1652851  39.0582013  97.7804756  22.6651192  39.1563606
  76.6993332  24.8000550  18.2777917  75.9889174  25.3569579  17.9593611
  77.3826742  24.8795414  17.6122403  78.6496687  18.7033451  54.7175407
  78.2665443  19.1141438  55.4925871  79.1905594  17.9941630  55.0650024
  79.7604847  19.2238867  17.2561181  78.9666796  19.7296190  17.4303067
  80.3462505  19.8410118  16.8176329 102.1338463  16.7914522  57.4498510
 101.2148762  17.0582306  57.4731684 102.1163082  15.8545911  57.6453400
 103.0477238  53.6736059  52.3689842 102.8746891  54.4447422  52.9090166
 103.4246826  54.0255976  51.5626097  66.4599371  11.6631854  23.2485604
  65.7470179  11.8945658  23.8439107  66.4503098  10.7063532  23.2238150
  97.3386669  12.9044557  36.7320633  98.1321144  12.8191102  37.2606373
  97.6517200  12.8989947  35.8275175  84.0856743  11.8388867  65.8196497
  84.5033455  12.5651181  65.3566504  83.6231232  11.3536370  65.1364088
  80.0686264  24.2358470  15.1570022  79.6458054  24.4862986  14.3355846
  80.9221649  23.8929367  14.8921978  31.6701102  57.2252798  87.6519966
  30.9351301  57.5432110  87.1276379  31.9214416  57.9749632  88.1914806
  66.7606783  39.5221543  29.3188334  66.4566612  38.9830661  30.0490332
  66.5809774  40.4212236  29.5938063  66.1342192   6.9322705  61.5616751
  65.9171152   7.8044617  61.8908882  66.0276413   7.0010018  60.6129122
 103.5080624  24.5268965  31.0329199 102.8258228  24.8880076  30.4668951
 104.2866611  25.0455356  30.8303761  39.3799090  47.6013088  27.0598602
  38.6044192  47.5359774  26.5025616  39.1782451  48.3119917  27.6685429
  81.1112118  28.7957001  31.8735981  81.8056297  28.1759381  32.0970225
  80.4186344  28.6191487  32.5103045  84.4236660  30.2929235  19.0259123
  84.8441696  30.9979296  18.5336030  85.1442528  29.7181320  19.2839706
  92.2395802  30.5924892  28.1547761  91.9913769  30.1393199  28.9605451
  91.7147636  31.3929749  28.1587863  65.1511192  31.8362927  50.6695366
  65.7758999  31.5538859  51.3374615  64.3099737  31.8654656  51.1254406
  58.7607765  33.2340217  28.8459110  57.9081631  32.8040218  28.9121008
  59.2182207  32.7539062  28.1556416  97.0192814  27.4513149  61.2900877
  97.8909492  27.8468227  61.2915277  96.4987755  28.0167294  61.8607140
 107.6590443  32.5208926  17.2266877 107.4088478  31.6069198  17.3619092
 107.6977921  32.8915691  18.1083512  36.8311739  88.0138969  60.3044748
  36.3409972  88.6849403  60.7795095  37.0235348  88.4133053  59.4561243
  76.5745926  31.7695785  23.2529163  76.0341072  32.1918249  22.5852251
  75.9508896  31.4837456  23.9203954   7.4228591  40.9320450  19.8029184
   6.5666443  40.9281540  20.2308369   7.9343092  41.5732813  20.2963400
  19.4918513  20.2487016  61.6554880  19.5520043  20.1844764  62.6086378
  20.3592420  20.5455041  61.3802147 112.5422859  57.7955008  82.2289753
 112.3024178  57.2730255  81.4636517 113.3715820  57.4200869  82.5249004
  88.6877060  83.5155582  38.4317160  88.8581371  84.4324684  38.6472821
  88.0217552  83.2411003  39.0621257  82.2107506  46.7522717  12.9992473
  81.9804192  45.9854221  12.4747252  82.7229309  46.3996506  13.7269592
  55.4778337  37.4352431   7.3268211  56.0353661  38.1292081   7.6786780
  55.4239178  37.6232791   6.3898212  64.4095421  70.2636957  39.3191361
  64.5521307  71.1183214  39.7259712  64.7196960  70.3716993  38.4200406
 109.3034267  60.7673025  67.6791573 109.4866848  61.4026642  66.9870901
 109.6446705  61.1750317  68.4751081 104.7786522  61.3062191  29.8990273
 105.3381348  61.0618877  29.1617918 104.7158718  62.2599030  29.8462915
 110.3922367  47.0804262  44.3727779 109.9109554  46.4723730  43.8116407
 111.3053894  46.9842672  44.1023445  86.4389896  52.7607441  35.0116158
  85.6729317  52.5285053  34.4867802  87.0878983  52.0902967  34.7979593
  71.3954020  84.1327953  45.5296373  71.6576385  84.0793610  44.6106100
  72.1105862  83.7128925  46.0075808  84.7425079  69.6991348  69.4250441
  84.8742867  68.7640238  69.2687464  85.1245213  69.8537397  70.2889824
  85.0573826  56.1071110  62.8055668  84.5751667  55.2867794  62.7018452
  84.9450111  56.5584135  61.9689512  93.1073380  70.5124903  37.4335885
  92.8517628  70.3664446  38.3443999  93.1769753  69.6337414  37.0605135
  88.4863758  81.6835308  42.6502371  87.8309155  81.4893246  43.3202267
  89.3257141  81.5666294  43.0953026  80.4930973  58.2356834  44.5753670
  80.2433681  57.3116446  44.5716763  79.8596716  58.6572981  43.9946365
   9.4527596  39.1085052  70.1497889   9.7129375  39.6140623  69.3797541
  10.0311100  38.3458233  70.1422024  72.8995752  67.6405001  30.8139634
  72.3387241  66.9213533  30.5232716  72.4315739  68.4319019  30.5477190
  97.9272842 101.5014076  10.9057462  97.6164532 101.7268467  10.0289416
  97.2316551 101.8012333  11.4909220  97.8811741  43.8282681  78.4884405
  98.7786961  43.5707474  78.2777882  97.5598240  43.1309652  79.0600443
  76.1244917  21.6921687   2.7420580  76.8013477  21.9933534   3.3481807
  75.5739403  21.1113691   3.2672197  96.1524010  82.2611046  18.3052790
  95.9470749  82.9287148  18.9597809  95.7752228  82.5983047  17.4927151
 112.7486324  91.2643623  30.5060816 112.9878139  91.8077755  29.7552633
 112.3844910  90.4681587  30.1191735  76.3937092  68.2202196  22.9611492
  76.3317871  67.6722622  22.1787548  75.7118130  68.8818169  22.8447890
 112.3904800  89.3991280  81.6930389 112.1889973  89.2632008  82.6188755
 113.1011868  88.7846565  81.5098667  19.1250587  60.9033871  65.3363323
  18.6064768  60.2601624  64.8530436  19.1847217  60.5460262  66.2223148
   3.1358692  47.9451895  80.4811287   3.9862061  47.5085592  80.5312634
   2.4987580  47.2466564  80.6307220  94.1793346  62.6959085  49.7130203
  93.5925198  62.7190685  50.4688978  94.5363998  61.8078041  49.7141361
  76.9498444  79.7766924  45.4906845  76.9232607  79.1370535  44.7790813
  77.5595474  79.4023418  46.1265755  93.7144661  60.6226397  44.8840475
  94.0635490  61.4589214  45.1922750  92.7698803  60.6916857  45.0227022
  58.3311415  80.2089500  34.3638468  58.9843035  79.7100306  34.8544502
  58.4842920  79.9700356  33.4496832  86.6156292  58.7860489  60.5381012
  87.1912861  58.1121922  60.8997154  86.7953587  59.5635080  61.0667706
  95.9791374  53.0807877  48.6673546  96.4076996  53.8318062  48.2568264
  95.0439453  53.2382107  48.5375118 113.0264187  74.9089527  84.3635941
 112.5725937  75.2943563  85.1130867 113.7080956  75.5440044  84.1439152
  79.3219137  75.9093380  61.4953756  78.5935640  76.5300608  61.4744568
  78.9044285  75.0488329  61.4570427  78.8633299  66.9199133  60.7531404
  78.7466240  65.9714031  60.8073521  79.7117329  67.0808363  61.1661148
  86.7601204  74.8029327  40.8359146  86.2838650  74.1984510  40.2666950
  87.6309681  74.8655462  40.4435635  77.0487738  82.7109528  47.3412180
  77.6280308  82.8357983  48.0929518  77.3710871  83.3290291  46.6852236
 104.8301411  55.9231710  59.3588114 105.3117752  56.7114830  59.6094704
 104.1123390  56.2444115  58.8131046  78.2070827  45.0674105  11.4016724
  77.4114418  44.9163437  11.9119346  78.2843399  46.0203457  11.3549638
  98.8091183  71.1666822  77.9859972  99.3682575  70.6938696  78.6024714
  99.3247890  71.9326830  77.7338839  65.4770470  79.5926905  30.3051877
  66.0957050  80.2638054  30.0169301  65.7510233  78.8002157  29.8434973
  96.6734982  56.7364311  39.0119171  95.8549881  56.5694141  38.5446072
  96.6370869  57.6668549  39.2337656  94.6120167  71.3588858  66.2663078
  94.2845058  71.3723230  67.1656322  94.6212673  70.4317141  66.0286045
  82.4311256  53.1677008  56.6995764  82.3457432  54.0002728  57.1640825
  81.5502930  52.9842758  56.3728857   5.8054256  43.0287361   4.5647889
   5.2100372  43.1287622   3.8219973   6.6774082  43.1587791   4.1920057
  87.2432899  66.9539309  23.2593250  87.9569054  66.9113922  23.8958645
  86.7523670  66.1435509  23.3953714  60.0586271  36.0792971   1.4593415
  59.8609400  35.1479077   1.5576592  60.9969711  36.1449957   1.6366024
  64.2789221  93.0389023  60.4137230  63.5296249  92.5830460  60.7971048
  64.6930885  92.3862362  59.8491526  76.7769718  79.6984053  26.3476324
  76.7994261  80.1669884  27.1819901  75.9636021  79.1946602  26.3776588
  19.6547556  82.0724487  29.4383121  19.3956208  82.4895477  30.2599621
  19.3434680  82.6695347  28.7580061  74.5885181  74.2166662  60.8794022
  75.1815462  74.2211437  61.6307592  73.9712429  73.5092068  61.0656881
  62.1797752  80.5649090  80.4805183  61.4594650  80.4460049  79.8614502
  62.7232456  79.7849894  80.3683090 113.3207956  16.3568175  45.8194828
 113.7151707  16.6131032  46.6531563 114.0566629  16.0466421  45.2917290
  66.9882822  97.7607441  24.3596530  66.9581223  98.2668495  23.5477495
  67.2141552  98.4020615  25.0333977  17.2085822  17.2533250  23.2149291
  17.8017473  17.9045033  22.8402901  16.8522704  16.7897868  22.4570322
  91.1538029  62.7207279  43.5637951  91.0921097  63.4722090  44.1534567
  90.4811954  62.8800154  42.9016304  62.2887421  59.1075563  31.9685364
  62.5399256  59.9109936  32.4241948  62.5593281  58.4034252  32.5577831
  88.7913609  83.3419800  77.5016737  89.5074272  83.0413055  78.0612087
  88.3970451  84.0671825  77.9862595  79.9862528  77.6190567  31.9756818
  80.1185322  78.2919121  32.6435161  80.8392715  77.1927214  31.8929791
  87.5090885  41.1370564  61.7487907  87.0051289  41.9413900  61.8724966
  86.8728542  40.5047750  61.4146376  88.8755512  94.3540573  43.6163902
  89.3976116  94.9801922  44.1180277  88.0975342  94.8463726  43.3545589
  99.1674709  42.4241161  44.1226768  99.0870380  42.4966526  45.0737286
  98.2739639  42.5346088  43.7976217  90.1779461  65.1366520  44.9737263
  89.5561218  65.3058147  45.6815052  89.6543694  65.1992130  44.1748619
 106.2147903  54.4597340  41.5511799 107.1329117  54.4505644  41.8217278
 106.2296772  54.1576242  40.6430292  68.7352133  71.5661001  40.3371716
  69.1963434  72.1365070  39.7221756  68.3297014  70.8971930  39.7854877
  78.1687641  57.1158886  35.1811886  78.7898445  56.5472698  35.6363440
  78.7185287  57.7305079  34.6951485  96.2944794  59.0103436  40.2688122
  95.4625893  58.6760473  40.6041288  96.2581444  59.9524498  40.4341841
   1.5485287  91.8187809  44.4016647   1.1577955  92.0344639  45.2484465
   1.4524098  92.6175880  43.8831091 106.0417175  62.2686672  11.7283082
 105.2849102  62.7773666  11.4372802 106.1336327  62.4855089  12.6560807
  81.1298943  70.4400396  33.1546569  80.5812168  70.8242989  32.4708986
  81.9207764  70.9792185  33.1583214  93.6490726  52.4874353   4.1181979
  93.3913517  52.7495003   3.2343796  92.8222179  52.3050880   4.5646346
  85.0156689  77.7339983  30.7527828  85.8209419  77.5551844  30.2672052
  84.3171406  77.6206589  30.1082325   7.3637819  80.0480366  35.3011465
   7.3665154  79.1113567  35.4982662   8.2577634  80.3346920  35.4878473
 109.1515732  54.3109369  19.7282147 108.5776329  54.6786118  20.4002571
 109.6175385  53.6026335  20.1725292  86.4874554  57.0125103  32.7662587
  86.1404514  56.2092304  32.3782372  87.0687199  56.7098093  33.4639215
  87.4879742  27.4012566  78.8087797  87.9995537  27.2219062  79.5976686
  86.6497517  27.7277136  79.1359520   0.2615394  62.6236105  78.9169121
   0.1544573  61.7756987  79.3479681  -0.2763876  62.5606966  78.1276655
  92.4050331  79.9617672  13.0167782  92.1097755  79.0650368  12.8588831
  93.2872105  79.9921513  12.6465404   7.8120536  92.2189903  91.5890694
   6.8680489  92.2801495  91.4429665   7.9420763  91.3425350  91.9512367
 103.3763313  50.7190418  47.9177141 103.3222008  50.2493906  47.0854092
 104.0638828  51.3707495  47.7807093   6.3998872  78.1066084  53.2148838
   6.6263050  78.8657141  53.7522173   5.9478927  77.5141525  53.8156557
 108.0766773  77.8491306  52.0950556 108.4934425  77.0171690  51.8706131
 108.7030220  78.2819462  52.6752234   7.7377176  97.0779610  15.1035452
   8.4694076  97.2846603  15.6850398   8.1333196  97.0138836  14.2342782
  91.8372536   7.3210084   1.3406652  90.9902287   7.6860893   1.0847407
  91.9544029   6.5632087   0.7677367   3.5581914  42.0340872  30.9582686
   4.2295057  42.2435474  31.6076493   3.7842482  41.1547375  30.6551671
 113.4587193  73.0390024  44.9601412 112.8766727  72.6030540  44.3377209
 113.8914299  72.3230314  45.4253006  89.1822433  68.6733341  10.5616689
  89.6409225  68.8588381  11.3810778  89.0916920  67.7205229  10.5482757
 100.0026226  67.2534323  12.3729110  99.4260788  66.6828775  11.8646753
 100.4798698  67.7590370  11.7150140  96.6037941  53.5721445  41.9735193
  96.9741154  54.4463634  42.0953131  96.5783405  53.4529448  41.0241127
  99.1475201  78.4955597  58.5924911  99.3350124  78.2590675  59.5008659
  98.7139416  77.7236462  58.2286310 100.9426689  51.2442970  71.6558838
 100.2857590  50.8117294  72.2014046 101.0739708  50.6466293  70.9198284
  87.4655056  76.5534019  33.8948178  87.0423794  77.3085451  34.3034315
  88.3457661  76.5397167  34.2705512   4.8782164  55.4889154  32.6022601
   4.7818586  56.2165213  33.2167006   4.7638407  54.7049999  33.1394982
 106.8573856 101.5266132  92.5091267 106.3472939 102.3253822  92.3748970
 107.6638126 101.8252182  92.9295254  79.3845940  81.7188644  32.4347019
  79.7183371  81.1022377  33.0863261  80.1690102  82.1215153  32.0621443
  92.5030231  56.2989998  45.0786161  92.6944923  55.3626204  45.1311636
  93.3215809  56.7254543  45.3322506  89.7220802  22.2864556  28.5373592
  90.4706287  22.8439379  28.3249211  89.3409538  22.6850820  29.3197083
 110.0996113  47.4518490  51.5266752 109.5692539  46.6945839  51.7746782
 109.4683361  48.0843925  51.1837149  98.2395554  66.7053890  58.5727787
  97.5489616  67.3262024  58.3406115  98.8444424  67.2117376  59.1149616
  81.1630917  88.2869625  93.0404186  81.2146854  87.9207802  92.1575356
  80.2250671  88.3378029  93.2241821  80.3516579  83.4698582  43.4951639
  79.6266270  83.0109024  43.9193344  79.9611330  83.8667107  42.7165556
 108.1325436  80.3747845  41.1800194 108.2505703  79.4676828  40.8981037
 107.5407219  80.7526875  40.5295086   4.2222396  55.1837778  37.0562649
   3.5498792  55.8217859  37.2952342   4.7077048  55.0323057  37.8671956
  84.1089344  85.4462719  13.3777750  84.1680145  85.4496479  12.4224055
  83.2073116  85.1822186  13.5610557 110.0822639  23.6051178  52.7639675
 110.3747463  24.5097113  52.6526117 109.1403675  23.6753440  52.9193115
  97.8548813  54.1724777  26.4576483  97.6584244  53.7031603  25.6468606
  97.0022964  54.4710541  26.7741656   8.4973568  64.9395275  59.1190767
   7.6318938  65.1716423  59.4557190   8.5328615  65.3424311  58.2515287
 113.8829422  82.4560070  58.3491945 113.5419273  82.4417210  59.2434740
 113.6758327  81.5891743  58.0000019  78.8944483  58.5809278  60.0803185
  78.0596304  59.0305090  59.9492168  78.9843607  58.5151720  61.0310125
  96.6777515  83.5084534  41.2567329  97.3068523  82.8625774  40.9353161
  97.2176552  84.1906166  41.6559649  81.2680626  67.7984619  33.0745888
  81.3291740  68.7523127  33.1261897  80.6871510  67.6355267  32.3314714
 102.2276115  58.5239315  53.9860058 102.7996063  59.2859936  54.0772104
 101.9733906  58.5243464  53.0631828  73.5912943  87.2625351  37.3040605
  72.9282570  86.9793320  37.9336691  74.4203949  86.9666958  37.6799774
  68.7100124  93.0345440  35.7432389  68.5242224  93.0420303  34.8042750
  67.8664398  92.8424835  36.1527896 111.3387012  83.7462139  42.1913671
 111.1537361  83.2499504  41.3940287 110.7996845  83.3291626  42.8635073
 106.3947392  78.5051346  73.4682512 105.5583572  78.1134748  73.7198544
 106.9892406  77.7608013  73.3746099 109.6331120  52.4255514  80.1612282
 108.9491749  51.7626333  80.0663280 110.4089355  51.9326973  80.4284668
  95.1117039  46.4842081  39.3558478  95.6410503  46.0994864  38.6572671
  95.4123306  46.0470629  40.1525688  94.6758556  68.4911394  33.0062747
  95.2578449  69.0083361  32.4494767  93.9353848  69.0713882  33.1830359
  96.5392017  67.0868349  39.0924025  95.6395340  67.0917082  39.4192123
  96.9676304  66.3838816  39.5808029  72.0745850  55.1294661  38.6362028
  71.9323206  55.4168320  37.7343082  71.6881895  55.8221388  39.1720533
  78.4283113  97.2335529  89.7123528  77.7690554  97.7361393  89.2337799
  78.5448313  97.7118969  90.5332375 107.7109146  64.9767637  38.6622572
 107.1595097  65.6027126  39.1317010 107.1686077  64.6812439  37.9309511
  88.3670807  32.9455042   9.4050729  88.4413815  33.8718200   9.6345240
  89.1769409  32.7497649   8.9338690  25.0355482  20.6794214  44.1303587
  24.3190289  20.0583506  44.2611361  24.6011925  21.5228081  44.0028048
 109.3541241  35.1228261  38.5993505 108.6527634  35.7240939  38.8499641
 109.5598125  35.3585243  37.6947141  62.1612501  77.6225090  49.0187645
  63.0825377  77.6881027  49.2700863  62.1814823  77.3133564  48.1130886
  48.5877800  72.8854036  54.2917824  48.6818361  71.9373226  54.3841267
  47.6440477  73.0261898  54.2157602 106.9763470  62.9877186  80.0150299
 106.9138336  63.8243437  80.4758739 106.8730927  63.2149887  79.0909481
  77.7518654  83.1976318  69.5958138  78.5073233  82.6133633  69.5314455
  77.5161457  83.1830502  70.5234194  82.7369308  93.9489365  33.8937545
  82.2585201  93.3640766  34.4813776  82.9923534  93.3926296  33.1578779
  95.8867168  56.0763121  53.6522627  95.0829315  55.6698418  53.9762020
  96.0966110  56.7449188  54.3042946 101.2640095  61.2415743  63.4645081
 100.7768154  61.6293669  62.7375364 101.1278057  61.8464088  64.1937923
  73.8663626 100.1183224  26.8497348  73.4790039  99.2942142  27.1447587
  74.6050310  99.8531437  26.3017583 110.6924438  60.0762320  74.7460079
 111.5002632  59.6996927  75.0950956 110.1218319  60.1682997  75.5090046
  85.4670334  52.5101757  64.3308496  84.8458385  52.1122599  64.9407768
  86.2689209  52.6183176  64.8422289  84.8955154  97.8835297  74.0393686
  84.3150139  98.6272144  74.2012024  84.3041515  97.1432114  73.9035511
 107.4994278  30.3011322  38.3347297 107.7775002  30.8561492  39.0633345
 107.7006435  30.8144426  37.5522614  82.1776867  45.2743483  68.6569881
  81.4966774  44.6044254  68.5964012  82.1581936  45.5535984  69.5723438
  73.7558746  72.0213985  61.9771671  73.1221390  71.8282938  62.6680517
  74.3698740  71.2875414  62.0034313   5.6887722  36.0337472  40.4290295
   6.2972665  35.3244519  40.6360674   6.1769080  36.6017342  39.8329210
  86.9273472  63.3734703  47.2137785  86.2626553  62.7354431  46.9543076
  87.7598953  62.9222727  47.0740557  93.1974792  61.3794088  41.6265249
  93.3244991  60.5669260  42.1163893  92.6857471  61.9356823  42.2138309
   1.1432325  87.8127480  37.4380565   0.6033614  87.9018497  38.2234430
   1.0186049  86.9042587  37.1635461  85.4933357  68.0974483  52.7143860
  86.0190010  67.4555779  53.1917858  84.6352291  68.0664730  53.1373692
 110.9319973  79.6412897  58.3615875 111.3604069  80.2345181  57.7445221
 110.3678608  80.2087116  58.8869619 104.8741341  45.8435488  52.3540449
 103.9402580  45.6590319  52.4543047 104.9575233  46.1790323  51.4614487
 102.7481651  72.1274424  43.2177591 102.5757027  72.8268862  43.8480520
 103.6945057  72.1593475  43.0775642  19.2847788  13.9868462  44.8556900
  19.7680843  13.1920016  44.6301508  19.4793522  14.5957565  44.1432285
  71.9131088  39.3564248  24.8395610  71.8951654  39.1706896  25.7783961
  72.4070787  38.6291957  24.4609308  75.7174397  73.4031963  63.5732555
  75.9583426  73.4626532  64.4977331  74.7832537  73.1947327  63.5821009
  93.0229187  33.7672877  50.0982952  93.6194229  34.2038822  49.4901848
  92.4238110  33.2768202  49.5354986   6.4930177  61.9428349  41.4467955
   6.4314067  60.9917927  41.5359879   7.4329937  62.1235228  41.4522934
 106.9417477  37.2855639  77.4339676 106.5843964  36.4499736  77.7344942
 107.8908157  37.1644640  77.4629164   1.5923774  69.9192762  52.1512079
   2.4333039  70.2743530  52.4392939   1.1023086  70.6824636  51.8452501
  87.0102692  60.9669304  58.3704901  86.3552475  61.5857363  58.6933804
  86.7820168  60.1366758  58.7885904 106.1219788  63.9042521  83.7321186
 106.2455177  64.2888451  82.8643322 106.8802643  63.3322859  83.8507748
 112.1298599  96.5056515  26.2484121 111.5774441  96.8874073  25.5662632
 112.6650620  95.8585739  25.7889605  91.7215538  66.4995384  34.5605016
  91.8047714  67.0939159  33.8148332  90.7829857  66.4797163  34.7474170
   1.6695262  55.6371021  63.5627413   0.7384077  55.8252573  63.4450626
   1.7038929  54.6960354  63.7343454  10.3841901  48.6834478  11.2015641
  10.3837657  48.4844732  10.2652729  11.2646210  49.0164757  11.3752520
 100.7480335  42.0131636  41.8316650 100.4251003  42.7910280  41.3768196
 100.2350998  41.9775915  42.6390457 103.6731529  87.5951385  38.7080169
 103.4110832  88.4275341  38.3147264 103.4790325  86.9412899  38.0364323
  11.7293775  68.9704037  37.6456332  11.6524160  68.8391304  36.7006063
  11.1908257  69.7411251  37.8250313 104.6987343  53.1369209  56.9144058
 103.8750744  52.9990387  56.4466286 104.5971298  52.6440954  57.7286720
   2.0452280  65.5857706  46.0379648   1.5843773  65.2277613  45.2792311
   1.4511254  66.2498522  46.3876343  47.8864574  83.8440132  71.4372444
  47.9256487  84.4228554  70.6759024  47.6764154  84.4244289  72.1688414
  15.9269214  95.9658051  13.0538726  15.2908230  95.5584526  12.4659336
  15.7626128  95.5580044  13.9041269  62.7665234  72.6056242  56.6871595
  62.3942518  73.3842707  57.1011114  63.6875010  72.8258276  56.5473652
   0.4235061  92.0633793  51.2105083   0.3643566  91.7495060  52.1128464
   0.1773019  91.3074970  50.6773567  90.8818245  63.9964151  72.8941345
  90.4285336  63.3150005  73.3905602  90.3161430  64.7647905  72.9704952
 106.1242104  82.2100735  61.2989855 106.4061356  81.3342381  61.0350418
 106.3751221  82.7732563  60.5667973  93.5571861  56.6471481  48.8881063
  93.9070320  56.9093513  48.0365849  93.6439228  55.6939554  48.8994741
   7.9035604  64.3076563  68.4790707   7.3526299  63.7957716  67.8868866
   8.6532140  63.7403631  68.6591530  73.9607668  67.6694679  67.2486448
  73.1768703  67.9303837  66.7652655  74.6031094  67.4628448  66.5697241
  94.3178940  75.5733252  86.7166233  93.5988712  76.0322332  87.1509552
  94.6058559  76.1748266  86.0299587   7.0844382  85.3197002  31.8536258
   6.4410913  84.6309566  32.0208549   7.9263997  84.9182987  32.0685840
  90.0831890  49.5227337  57.8980017  90.2660084  49.0868998  57.0656204
  90.3956318  48.9094257  58.5631800 105.8391094  37.6919818  22.9416800
 105.7068634  37.0373368  23.6273766 105.2576065  37.4171233  22.2327733
  76.3696623  60.1830244  62.8748512  76.0191488  60.9524202  62.4260759
  77.3195982  60.2923441  62.8311968 101.2157154  76.0206556  53.6478567
 101.4733601  76.4183378  54.4795418 101.9877911  75.5287933  53.3682108
  97.1581078  84.0084648  26.5356660  97.0687675  84.7206306  27.1689749
  98.1030178  83.8840389  26.4468694  79.4441748  80.9667492  54.5940399
  78.6545086  80.4806805  54.8315096  79.2462921  81.8737984  54.8271656
  74.2822838  78.3285236  23.2858300  73.6194277  78.7816429  22.7647376
  74.1891336  77.4072790  23.0432105  82.8922272  67.2320700  48.4661484
  83.1382751  66.3296413  48.6694098  83.0982971  67.7216625  49.2624283
 106.0576439  84.1041851  21.4026380 106.8105984  84.3018150  20.8456540
 106.4029217  84.1424084  22.2945762   4.0418339  97.9459000  55.0692034
   4.3001288  98.1975651  54.1825390   3.2058829  98.3902931  55.2103853
  92.1215153  65.8631802  60.6192350  91.6412640  65.0593758  60.4205132
  92.4993610  66.1298370  59.7811699  12.3326874  54.5562506  29.5447397
  13.1666553  54.9983025  29.3856215  12.5235140  53.9284801  30.2416754
 110.1814079  55.9976482  47.7452850 109.6367931  56.1342192  48.5205126
 110.3098392  56.8751764  47.3851824 107.2574425  54.8838758  77.3344612
 107.4843216  55.5164623  76.6528511 107.8239727  54.1319609  77.1615458
  95.1216412  70.7885075  61.4733076  95.4380131  69.9585390  61.8300867
  95.0751495  71.3724375  62.2303343  75.8193159  53.2337093  63.1276178
  75.2456284  53.1186390  63.8851643  75.5300093  54.0552807  62.7306890
  94.8210144  54.8713779  32.6597667  93.8739109  54.9873924  32.5837827
  95.0113010  55.0516510  33.5803771  96.0472488  72.8777552  25.9155440
  96.3899803  73.7679243  25.9952998  95.8307648  72.7866983  24.9876022
  83.6189651  63.0045605  78.5291195  84.4113541  63.1186390  78.0043936
  83.3396912  62.1068716  78.3491421  40.3419733  76.6514063  37.9981875
  40.6078959  77.1135330  38.7931418  41.0224247  76.8630886  37.3591161
  92.4060345  44.4874430  67.1367598  93.2876396  44.1167593  67.1766663
  92.2880173  44.7262669  66.2173748 107.2520256  76.4089823  44.8879004
 107.1301937  76.9491005  44.1070938 107.4822044  77.0323801  45.5768299
  86.2081814  61.8155766  43.5866642  86.1389256  62.1692419  42.6998949
  87.1424675  61.6432810  43.7035131  21.8982363 105.6080055  74.3980217
  22.1684361 106.2766171  75.0274515  21.1721420 106.0085964  73.9199543
  87.0111370  63.6281919  15.9790015  86.1902142  63.7756968  16.4486420
  87.0980740  64.3884945  15.4040122  89.2000961  73.5918617  47.6582003
  89.0872192  72.7926922  48.1728029  89.1446686  74.2998409  48.3000135
  78.4632826  56.7449665  58.0110550  78.3013296  55.9846354  58.5695362
  78.3984804  57.4947548  58.6025381  65.5713987  82.6736832  68.9062595
  65.5532885  83.0678749  69.7783375  65.4119396  81.7426109  69.0609121
  82.8960037  52.4025536  28.5527515  82.6755619  51.4710855  28.5528445
  83.8481903  52.4233532  28.6484075  10.2109098  56.5191174  54.6370697
  10.2592611  57.3972130  54.2591238   9.7430569  56.6394663  55.4634237
  86.8531990  26.8668842  31.1846089  87.1050262  26.5187669  32.0399594
  87.5283146  27.5142670  30.9812832  83.7501621  87.3997593  70.3147745
  84.5075798  87.8509331  70.6875944  83.8179970  86.5041924  70.6457996
  83.8585758  67.4229956  71.8002224  84.5795155  68.0064392  72.0370197
  84.0236759  66.6233206  72.2997189 107.1692848  63.4933138  56.7314434
 107.1090794  63.9472198  55.8908606 108.0940533  63.2596922  56.8118000
 111.8629456  81.4200783  63.8679028 111.2224007  81.4475536  64.5786572
 111.5602398  80.7115650  63.2999229   1.2354764  81.2611961  54.0217018
   1.5428154  81.2948990  54.9275970   1.8957652  81.7460632  53.5265732
  82.0717335  68.4889460  12.5737917  82.4603271  69.0554190  13.2403743
  82.8071976  68.2366085  12.0155418 107.0853138  51.0467720  35.0521040
 108.0186462  51.2218094  35.1725006 106.7168999  51.8877125  34.7813153
  79.5883512  51.9118452  16.9514096  80.2685261  52.3599291  17.4542201
  79.2319250  52.5879192  16.3751149  36.3272786  62.9549265  56.1288595
  36.2844872  62.0393944  55.8528137  37.1456885  63.0186462  56.6211748
  82.8611374  80.3750706  46.7512369  82.0430183  80.8438778  46.9159603
  83.2893944  80.3329659  47.6062536  81.6226482  34.8780894  73.6089611
  82.1235561  34.1809630  73.1854820  80.7087421  34.6647239  73.4205627
  91.7929173  64.1269112  14.2310917  91.0241318  63.6178160  14.4880354
  91.8717957  64.7995424  14.9075353  95.7306194  64.0426731  64.0397692
  96.3350296  63.3626556  63.7422943  95.8524895  64.7601366  63.4179735
 105.2907085  77.6499844  39.2843771 106.2351990  77.6614761  39.1293168
 105.1744747  77.0359182  40.0093889  86.1604023  67.5461769  48.8685131
  85.5414009  67.5830841  49.5977020  86.3914585  66.6200256  48.7971258
 102.4965858  68.7196016  66.0938835 103.3969593  68.9260864  66.3447094
 102.5807095  67.9942369  65.4750109 111.8278313  72.9991341  29.1223383
 111.5681171  73.5658455  29.8487139 112.1846771  73.5983992  28.4667659
 109.1889954  98.5181522  46.3334227 109.8614979  99.0464497  45.9034491
 108.6550999  98.1790638  45.6149483 105.4558086  74.0996265  50.4270029
 106.2846375  73.9367342  50.8772659 105.6980610  74.6173286  49.6591902
  87.7427197  76.5909386  16.4096475  87.0448494  75.9794092  16.6446674
  87.3448658  77.1700239  15.7595658 109.3044567  98.8015461  41.7230654
 109.6679115  98.0870533  41.1999655 108.3847713  98.5656548  41.8445396
 100.1407337  86.8925190  52.5923443  99.9909782  87.3132610  53.4389734
  99.5976257  86.1046982  52.6169968 108.4345245  96.5646553  39.3872166
 109.3914604  96.5725994  39.4081330 108.1741810  96.6521168  40.3041697
  85.0325203  74.9369144  25.8901858  84.4712353  75.3726768  26.5315199
  85.1253033  75.5734873  25.1813889  29.1028666  63.7985659  45.9088135
  28.5103154  63.2930374  46.4651871  29.0640783  63.3613539  45.0581837
   2.4719003 104.0100193  27.1269417   2.3478840 103.9844322  26.1781549
   1.5869561 103.9453125  27.4859929  11.2196350  87.8107643  45.5562830
  11.5312958  86.9485378  45.2812195  10.9668672  88.2451725  44.7416496
 106.4277840  66.6940689   4.4129902 107.1938610  66.5871763   4.9768442
 106.3817787  67.6357126   4.2474145 105.5847359  83.4062862  37.1245146
 105.8893394  84.3113518  37.0589185 105.4397583  83.1360531  36.2177682
  38.5962725   1.4157435  44.6411180  38.6840820   2.3406169  44.4106150
  37.6589584   1.2946619  44.7928286 106.5522671  44.0320778  58.1388187
 106.9400692  44.1732168  57.2751522 106.3257694  44.9098921  58.4460211
  77.7536774  62.9994726  44.3744946  78.1363106  63.5011816  43.6546946
  77.3425674  62.2466230  43.9497137  99.7350407 105.8333111  21.5444493
 100.3909302 105.4391861  22.1195245 100.2117729 106.5127945  21.0677409
  82.9253101  83.2829666  67.5568151  82.9687119  84.2199898  67.3661661
  82.1312237  83.1818581  68.0816317   6.7818689  79.7984934  32.7505660
   6.0166210  79.2477274  32.9157448   7.2425592  79.8261547  33.5891557
  11.2801361  55.2472210  49.0890026  11.2418950  54.3364477  48.7970018
  10.3892028  55.4434443  49.3787718 102.8020382  65.5215454  16.3083613
 102.0236015  65.1374006  16.7117262 102.8313923  65.1383495  15.4317021
 108.5786343  62.2134495  48.4247255 108.9712334  62.9979706  48.0418158
 107.6558590  62.2610235  48.1747961  39.2610121   3.1081018  40.2967358
  38.8966131   2.5619099  40.9932423  38.8946009   2.7444246  39.4906855
  13.6543489  63.8392735  51.9349051  13.4725821  62.9607773  51.6010809
  14.5894957  63.8292217  52.1389389  23.2807064  84.6656990  83.9453411
  22.4357438  84.8884010  84.3360806  23.1625104  83.7772083  83.6094189
 105.2518749  76.2900543  41.7163801 105.4013348  75.3792810  41.4626312
 104.5512104  76.2455177  42.3670101  11.6850030 105.5291748  44.1536474
  10.9969342 105.5751991  43.4898138  11.7215979 104.6041393  44.3969440
  91.3692856  78.1381035  49.6619034  91.9376373  77.4214983  49.3796158
  91.3284492  78.0505037  50.6142092   6.2594634  81.6879940  63.9475346
   5.6732649  80.9974670  64.2570210   6.2187034  82.3596954  64.6282625
  31.6880965   2.9893485  61.0691786  31.6102862   2.8731090  62.0161009
  31.7306089   2.0986459  60.7212210 100.1790905  50.5101490  38.5006690
 100.1716518  50.6320715  37.5512958 101.0561562  50.1783180  38.6926746
  91.3714886  67.7101469  39.3041515  91.7782879  68.4584522  39.7409391
  91.7712593  66.9450474  39.7177219  20.4355526  94.6815872  45.5814600
  21.2860537  95.1137543  45.6596375  20.2249813  94.4042110  46.4730597
  17.9902768 103.4859085  70.9246254  17.9522097 102.6298523  70.4980659
  17.0922220 103.6503696  71.2121677  25.3966522  59.8065853  37.8532338
  25.3652906  59.0622377  37.2522426  26.3219571  59.8894024  38.0838466
  97.3248386  80.3477764  46.4189577  97.0523834  79.4436407  46.2623167
  96.5326881  80.7862377  46.7296028  69.3312454  37.5406766  15.7687461
  70.2528763  37.3535085  15.5904496  68.8768435  36.7236066  15.5634463
  29.3519497  53.1158304  37.0565963  28.4605646  52.7939463  36.9222331
  29.3086839  53.6048985  37.8782845  90.2714729  54.0606308  41.5905619
  90.6520176  54.7676849  42.1116066  90.7672024  53.2822514  41.8447495
  36.0398817  82.8032494  43.7197447  36.5720367  82.7491951  44.5135498
  36.3192177  82.0546436  43.1926918  77.3710918  70.6686974  66.6854620
  77.0677328  69.8126602  66.3831234  78.0614996  70.4686069  67.3175478
   6.5073359  99.2500782  56.1557150   5.7858032  98.6656380  55.9232235
   6.2987536  99.5475769  57.0412731  17.1631658  64.0897322  58.2399559
  16.5462577  64.2067051  58.9624310  17.4421275  64.9778318  58.0170393
  95.9292221  91.5490150  65.9741116  96.0094833  90.6048489  66.1095619
  96.1341190  91.9316483  66.8272448 103.0381489  89.9199772  36.1395502
 102.9112339  90.6002426  36.8008804 103.9767265  89.9397564  35.9526658
  95.7850266  99.0577698  35.2846265  96.1072445  99.9553967  35.3663468
  96.1043835  98.7654400  34.4309402  92.2179794  69.3369341  54.5221424
  91.3662720  69.2278433  54.0991497  92.0108604  69.6700478  55.3952789
  49.6759939  95.5642223  23.1643486  49.5494223  94.6170330  23.1092930
  48.8127041  95.9082985  23.3936477   9.9083614  92.7948570  67.3555183
   9.6273655  92.2830009  68.1139851  10.6023681  93.3613491  67.6926661
  86.8592262  78.9388275  15.1550508  86.3608456  79.1611004  15.9414637
  86.4184380  79.4131660  14.4501126 106.1453342  97.7126884  37.3826838
 106.6621208  97.1818733  37.9888177 106.6735935  98.4984589  37.2421765
  90.8731747 100.6027603  57.1697664  90.2341366 101.3134480  57.2225714
  90.6193638 100.0000191  57.8687096 106.1101246  77.1484423  13.5150468
 106.6847229  76.5316582  13.0615687 105.2269840  76.8942595  13.2473004
 104.6748066  51.0993719  58.9656401 104.2578125  51.7114687  59.5720053
 105.5633926  50.9935713  59.3054295 110.1281071  87.2998047   7.5203472
 109.4593239  87.9622555   7.3467690 110.9025097  87.8019905   7.7739912
  12.1759868  87.0352745  53.6019945  12.1997797  87.8957272  54.0206718
  12.3515284  87.2135448  52.6780701  95.9619141  92.2407150  42.9694557
  96.2425804  92.1190357  42.0624542  96.3977051  91.5378094  43.4513760
   3.3924896  85.4494572  29.4687176   4.1176578  84.8768806  29.2186809
   3.7809834  86.0746861  30.0805926  95.6051254  91.5318775  50.4137802
  96.1627579  92.2484684  50.7167339  95.1293659  91.2516117  51.1956596
   4.7109506  65.5742741  14.5631564   4.1676489  66.3185406  14.8222291
   4.2376298  64.8079538  14.8871219  16.6662896  93.4953022  23.4600949
  16.1823285  94.0081024  22.8127527  17.5385547  93.3914185  23.0798388
  21.7265177  53.7041140  18.1901538  21.0815001  53.4233952  17.5410163
  21.9511151  52.9044914  18.6659598  10.7866716  79.0585518  21.3352752
  10.4355311  78.6300182  22.1158457  11.3601041  79.7449064  21.6763377
   0.3663368 100.1904392  46.4476156  -0.4288078 100.6342697  46.1526680
   0.8912300 100.8820534  46.8505859 105.6363869  69.2689753  40.6147814
 105.1807785  70.1071072  40.5361319 106.5163994  69.5016050  40.9109020
  19.5094144  86.6940975  31.9549656  19.9278522  86.3772869  31.1544824
  18.6118710  86.8974400  31.6917157 112.1544552  77.7661610  14.3394804
 112.2757530  78.0566359  13.4355211 112.0526695  76.8166208  14.2743182
  16.8268180  76.8496561  41.1631918  17.6518607  77.3228645  41.2709284
  16.1522639  77.5250244  41.2345314 106.1484146  66.9443226  39.3435907
 106.0548973  67.6477051  39.9860358 105.2747822  66.8486595  38.9643049
   5.5452371  95.8861160  43.7984085   4.7572148  95.5693150  44.2398739
   5.2599794  96.0730076  42.9040194  37.4852586  10.2714169  33.4660769
  38.4356999  10.3412199  33.3765149  37.1795964  11.1782146  33.4888887
 112.8260422 106.2244987  25.0117874 112.4047089 106.6037750  25.7830548
 113.7631798 106.2827778  25.1978207  53.0650854  58.2790852  11.6918290
  52.1881199  58.3555698  11.3159084  53.1596613  57.3477459  11.8915653
  28.4730124  41.3857508  71.5959883  29.1998506  40.7737017  71.7114878
  28.0504823  41.4205074  72.4541759   3.0365199 101.4713669  28.2095623
   2.2796352 102.0535946  28.2756257   3.5439715 101.8204117  27.4768353
   1.6921678  63.6543560  48.0207968   0.8573638  63.9604902  48.3752155
   1.8700504  64.2413330  47.2859144 109.4114304  75.4555082  37.5287843
 109.7472095  75.4753447  38.4249377 109.6959591  74.6086550  37.1850967
  64.6935177  80.8271122  75.3305626  64.2394686  80.2575874  75.9516191
  65.0688887  80.2273750  74.6858644  65.5596018  72.4630737  40.6406212
  65.4117012  73.0370903  39.8890495  66.5085649  72.4718714  40.7656336
   9.4635749  73.2246256  63.9624834   9.1164303  73.2758188  63.0719233
   9.2381644  74.0674734  64.3562317  98.2336140  59.5332003  25.8653879
  98.9800644  59.0651989  26.2395763  98.5590935  60.4203701  25.7130075
   7.8392917  59.6279478  22.2111678   7.1898127  59.2142439  22.7797270
   8.2539779  60.2904797  22.7637219 104.7610092  86.3281918  54.1828203
 104.5239639  85.9756756  55.0405931 104.8242760  87.2731876  54.3213892
  65.8150434   6.2368113  20.0631452  66.5310001   6.0279000  20.6631398
  65.1087999   6.5449059  20.6310606  92.7352142  57.0198631  35.5437756
  92.5993347  57.2649717  36.4590287  92.4820042  57.7980709  35.0472856
  93.2035637  58.8572168  42.9452515  93.3102226  59.3369436  43.7666607
  93.8315201  58.1372690  43.0050707  15.5124426  64.5543432  60.7640600
  16.1541939  63.9551258  61.1452675  15.8373547  65.4266977  60.9869194
  98.6257744  77.3098040  40.6546879  98.4915352  76.5676737  41.2441397
  99.0391541  77.9780865  41.2012625  12.0619178  57.3926353  56.9869709
  11.4843416  57.8579378  57.5920582  11.6940701  57.5692940  56.1211109
  12.9637837  71.9929981  53.1235647  12.1480358  72.2239637  52.6792240
  12.7582383  71.1875916  53.5982275 107.2926235  45.1312113  68.7051010
 107.1600151  44.2261934  68.4229803 106.4145660  45.5123091  68.7079334
 104.3416500  62.3704147  58.9776278 104.9070930  62.5406933  59.7309589
 104.2917347  63.2101631  58.5209465  84.7151566  63.4304142  17.3873127
  84.0962124  64.1487789  17.5180662  84.2327595  62.6473618  17.6525664
   4.0257040  98.7325287  37.1068859   4.3197945  99.3738556  36.4600110
   4.8210382  98.4871483  37.5796008  93.4296131 101.0188770  29.8993635
  93.3162594 100.8261585  28.9686418  93.2520008 101.9565582  29.9731541
 109.5741367  80.6400490  60.4955292 109.9717236  81.5003395  60.3611898
 109.2631531  80.6586170  61.4006138  78.4766054  82.3468781  50.5407524
  77.6885939  81.8740749  50.2729368  79.1067314  81.6593933  50.7564545
   6.9154322  76.9239426  27.6297593   7.7048433  76.4025640  27.4840593
   6.2892324  76.5958881  26.9844007 109.3362617  92.8161049  62.3351002
 110.0033855  92.5686264  62.9753685 108.8815880  93.5564041  62.7369165
  98.0323696  85.0076771  22.6198220  98.2618141  85.8073807  22.1464777
  98.8713264  84.6578598  22.9198313  76.8596363  87.8982258  60.7921696
  77.0806599  88.8125038  60.9695673  77.1570635  87.4248123  61.5691185
   3.8757986  99.1176224  29.2097950   4.7968179  98.8611603  29.2564607
   3.8811690  99.9424553  28.7241340  18.5807157  98.3894157  40.0429916
  19.2969930  98.0278683  39.5210171  19.0135515  98.8016701  40.7906103
 111.5006161  97.4732304  54.5849991 110.7124233  97.3022747  54.0694761
 111.3578987  97.0001602  55.4047966  88.4657669  97.3307514   9.1741234
  87.7759743  96.9024372   9.6810406  88.0640602  98.1406307   8.8595384
  85.9412956  95.8381271  43.5414839  84.9983788  95.6935215  43.4625912
  86.0924816  96.6761780  43.1043863  87.0327091  97.3539162  38.7052274
  87.2880268  96.4987946  38.3590937  86.3758755  97.1557236  39.3727064
  18.5646999  89.9674225  15.8757246  19.0221798  90.4677677  16.5514421
  18.6901498  89.0528297  16.1287355  94.4001389  92.3517323   9.9383521
  95.1273441  92.9358482  10.1533329  94.8148155  91.5064049   9.7660315
 112.6393509  91.9255352  27.2811580 112.4874878  91.0120678  27.5235391
 112.3890972  91.9732952  26.3584876  95.9982967  57.1221542  50.8515930
  95.1186943  56.7601490  50.7443762  96.2468052  56.8868732  51.7455244
  75.8572817  96.7306805  23.3422637  76.6791868  97.2148800  23.2631302
  75.6641483  96.4393902  22.4511528  21.3060522  91.5939999  11.7896664
  20.9632611  90.7234001  11.9916224  20.6415653  91.9878387  11.2243521
  96.5969944  97.3689651  41.4868021  95.7570744  97.2903824  41.9391108
  96.6909885  96.5436840  41.0110807   6.7642331  59.1053486  41.5418816
   6.3129973  58.5797596  40.8812952   6.5597510  58.6741972  42.3716593
  34.3527842  59.7920847  46.7512035  34.5417857  58.8895750  46.4943266
  33.4490418  59.9366426  46.4708757  44.0639496   1.0301311  29.8166656
  44.0254784   1.7138126  30.4854918  44.6656895   0.3778110  30.1753044
  65.9712696   5.6563330  50.9672689  65.3070402   4.9729794  51.0570383
  65.6310034   6.2326765  50.2829599 104.6729183  82.3871326  73.8129807
 103.9556217  82.4488258  74.4437885 104.2427254  82.4093628  72.9581881
  94.6561337  64.8353767  54.1907692  94.8643017  65.4041767  54.9319649
  93.7430477  64.5844173  54.3304873 101.2063980  93.4842491  53.3229733
 101.3073635  93.0865002  54.1877460 101.0763359  92.7426338  52.7319431
  27.8188491 100.8757877  19.1043079  27.1922731 100.4413891  18.5255790
  28.5833716 101.0373402  18.5514629 101.0627556  75.5341434  30.6009674
 101.5745068  76.2189293  30.1703668 101.7167664  74.9175262  30.9300351
  78.7105656  94.7957230  16.6940439  79.2076874  94.1349506  16.2118852
  77.9374933  94.3292141  17.0117867 101.5208721  86.5235043  22.1169448
 101.6238022  87.2941494  22.6752830 102.2993374  85.9948921  22.2924399
   3.9253071  76.6014528  71.0827971   4.0542877  77.1899557  70.3389835
   3.6239761  75.7820129  70.6904268  29.5929432  59.2395782  89.9781227
  29.2710233  58.8809919  89.1510677  28.8791060  59.0899849  90.5980301
 108.8990307  57.7031946  59.1530800 108.9472294  58.6328554  58.9302874
 108.0404091  57.5993872  59.5632267 110.6231689  64.4079304  36.4723206
 111.2620735  65.0943518  36.6643023 110.3135395  64.1217804  37.3316693
 107.5702000  42.0399666  39.7051239 108.0676746  42.7517223  40.1078033
 108.1796741  41.3021040  39.6870184  96.2264633  99.7674179  43.7363720
  95.9962082  98.8708687  43.9801264  97.1546650  99.7223568  43.5069036
  98.2637119  79.4027996  19.9824917  97.8190804  79.6715450  19.1785574
  98.5780716  78.5177326  19.7979343 111.8443108  48.6253166  20.0161910
 112.5588703  48.8875628  19.4357884 111.0965443  48.4969664  19.4325876
  10.7983553  82.8989315  42.5804472  11.6299701  83.2579994  42.8898382
  10.1454639  83.5490704  42.8398371  93.8571072  85.0354958  40.9881163
  94.7958183  84.8528004  41.0291147  93.7958527  85.8722401  40.5273104
  97.1510887  85.1293087  70.5766582  96.5527725  85.1086521  69.8297882
  96.5987873  85.3735638  71.3193130  10.0097871  86.7048359  49.9013042
  10.4853499  86.4553261  49.1089535  10.6397974  87.2180939  50.4071474
  84.3923187  81.5906811  72.1977663  83.5930061  81.0641193  72.1890354
  84.2485332  82.2555065  71.5242958 104.7720623  60.4033422  25.4062319
 104.5708466  59.8234510  26.1407161 105.6089592  60.8046865  25.6402349
  32.9255319  36.4161873  17.0875609  33.1930614  37.2773480  17.4085939
  32.1897650  36.5966487  16.5024853  98.0230713  48.6526585  39.4693089
  98.8639641  49.1062975  39.4115353  98.1471539  47.8522873  38.9591742
   9.0403235  69.3641138  57.8680468   9.5251817  69.1585588  58.6673498
   9.6976322  69.3278122  57.1731615  93.1898689  95.4045010  55.9019709
  92.4844646  95.9626389  56.2292385  93.4661102  95.8214283  55.0858259
 104.8841286  90.7256794   8.5748172 104.6965694  90.7018375   7.6364768
 105.8043194  90.9837437   8.6286479  83.6651993  95.8658314  83.3156681
  84.2682171  96.3564587  82.7571964  83.1701183  95.3158855  82.7084732
 112.4557877  43.9440250  72.9771471 111.5876389  43.6018467  73.1903887
 112.8939629  43.2217979  72.5270176  94.4399738  87.4376011  10.3329563
  94.0016460  87.5517464  11.1762059  94.2205334  86.5443802  10.0679255
   3.3034673   7.1682638  70.6598139   3.4104604   7.3158246  71.5995026
   2.8335676   6.3364929  70.5999565  66.9183254  60.3420496  39.7029757
  67.4761724  60.8446264  39.1092944  66.9916058  60.7961512  40.5424118
  35.4484200  14.3571794  15.9402084  35.4187441  14.2591822  16.8919158
  35.9673500  15.1486552  15.7969940  30.0629711 102.3051167  50.8293343
  29.8736215 101.6523266  51.5033150  29.5873976 101.9975471  50.0576735
 105.8733177  36.8309975  53.5021162 104.9756813  36.6334128  53.2348204
 106.3654137  36.8654323  52.6818228 110.7108498  78.6832237  31.9116330
 109.8751736  78.2492542  31.7397499 110.8219337  78.6218214  32.8603792
   2.8101489  94.6318626   7.2325075   3.6306021  94.7930145   7.6984668
   2.1371298  94.6708870   7.9120326  96.8371487  90.4542351  23.2545900
  97.5720310  89.8771954  23.4624314  97.2354507  91.1930466  22.7944255
 108.4132290  76.3678122  75.2176285 108.8646126  76.8959570  74.5591831
 108.8542938  76.5817451  76.0397768  19.1932034   0.4209754  68.4750700
  18.8509738  -0.3245482  68.9683294  19.0351725   0.1946331  67.5585413
   0.7128537  76.0365057  78.3597708   1.5768045  76.4428997  78.4280586
   0.1612175  76.7115164  77.9644394  62.3908710  89.4647789  30.3112125
  62.6565695  90.3319931  30.6170988  61.7641020  89.1608715  30.9677458
  24.5669746  88.1156826  70.2922869  24.8895359  88.2765579  71.1790228
  24.0691328  88.9029980  70.0720024  26.5432000  91.5132713  70.4166174
  26.3263512  91.8715191  69.5558834  27.4837399  91.3406086  70.3741503
  38.4457493   6.6914147  54.8125172  39.0658545   6.0294080  55.1182079
  38.0456138   7.0323056  55.6124640   4.7203243  60.9829569  44.9025917
   4.0330189  61.4693260  45.3578854   4.6126372  61.2213421  43.9818287
  82.7830410  55.9147930  57.1795750  82.7914143  55.9389925  58.1364346
  83.6946487  56.0632086  56.9282436  20.3220248  93.1421375  43.3169317
  20.2943802  93.6956310  44.0973902  21.0010767  92.4946690  43.5064125
  92.7996445  75.2743053  75.1783705  92.1970367  75.8904696  74.7619057
  93.0238819  75.6856966  76.0130548  81.5033531  80.7927895  72.1318483
  81.2733746  80.3633785  72.9558277  81.5182114  81.7260456  72.3441172
  42.3086977   5.9576273  54.0194416  43.1475163   6.3612068  54.2424536
  41.6616297   6.4619529  54.5125866   9.4196600  57.6203108  38.2793617
   8.7503433  57.5017595  37.6054239  10.2475929  57.4661016  37.8244138
   3.2388568  57.7822065  51.8657064   4.0839440  58.2316208  51.8751001
   2.6389015  58.4087038  51.4610004  82.6610374  77.9011106   3.6056867
  82.3776436  78.4121037   2.8475285  81.8876648  77.8579187   4.1680509
  27.9609656   7.8838378  16.3357699  28.9108944   7.9809839  16.4023244
  27.6394129   8.7724590  16.1834931  89.5771503  83.1756496  33.8159227
  89.1412735  83.4816074  33.0205369  89.1296959  82.3583126  34.0349698
   4.6339691  66.7329121  35.8635020   5.4560667  66.8431234  36.3412476
   4.7345880  67.2797251  35.0843334   5.7691920  59.9199057  53.8915873
   5.7714033  59.6772146  52.9656696   6.2513739  59.2156744  54.3249321
 101.8631554  99.5606613  31.8564463 101.5064144  98.7300968  32.1712947
 102.7939701  99.3847752  31.7189837 107.2256565  75.4631805  48.1464005
 107.9297066  76.1066580  48.2269621 107.6745415  74.6179342  48.1290674
  93.6550236  72.5869322  10.7177985  93.6143398  73.5415649  10.7748532
  94.5135117  72.3619270  11.0764277 112.1241856  70.9965181  31.3486624
 111.1913013  70.8835840  31.5308762 112.1501732  71.4740992  30.5195236
 104.8220825 106.9366455  64.1390562 104.0890217 107.5024414  64.3813848
 105.5230618 107.1808147  64.7434044  96.8093395  52.3382568  30.0585508
  95.8847523  52.5843716  30.0868082  96.9051838  51.6870070  30.7534742
 105.4938221  67.1949196  46.2808228 106.3627434  67.4988031  46.0184145
 105.4005909  67.4894047  47.1868134  31.4112735  97.5919628  18.6919904
  31.7507768  97.4964142  17.8021371  31.7894125  98.4134483  19.0056908
   9.7953761  96.5937996  19.3259728   9.2710483  96.8177986  20.0948262
   9.4496089  95.7489109  19.0381396  73.8514185  62.6694012  39.3286824
  73.7269735  63.2293940  40.0949430  73.4190369  63.1394815  38.6157274
 108.2750702  76.6472960  30.6318688 107.8379536  77.4964523  30.6958294
 108.9470768  76.7736864  29.9620461  33.6094713   1.2394962  50.6494951
  34.4517875   1.5763529  50.9548855  32.9817796   1.5276393  51.3122225
  15.3094268  72.4677229  81.3552856  15.4344821  72.4998093  82.3037338
  16.1805189  72.2813272  81.0050106 105.4321861  87.7757359  45.3227663
 104.9306488  88.5575485  45.5539656 105.0309658  87.0736504  45.8349514
  98.9951134  40.9538412  17.8488255  99.0494633  41.6362095  17.1797538
  99.8914433  40.6285477  17.9325271  10.1562202  79.8488808  41.8371201
   9.8215508  79.0090847  42.1517181  10.6621087  80.1955795  42.5720406
   3.8513428  63.8546419  49.4951439   2.9541820  63.7129974  49.1930342
   3.7655997  64.4782305  50.2162647  82.4615860  69.9010563   6.1997229
  82.5031185  69.1609049   6.8052632  81.7436218  70.4409552   6.5302789
  65.0871229  15.7651114  44.8172569  64.9132347  15.2769566  45.6220579
  65.7703352  15.2616084  44.3746090  97.0826149  60.4096413  42.9255390
  96.7745018  61.1725712  42.4364185  97.9203415  60.1871014  42.5194359
 113.4527111  68.1537914  44.8065853 113.0405521  69.0007448  44.9769735
 113.6603069  67.8093767  45.6752157 109.5380306  48.4796143  26.8072128
 110.4605675  48.7110138  26.9150329 109.4807053  48.1321192  25.9171605
  19.1094589  83.5519886  31.8335748  18.4509957  84.1213322  31.4354563
  19.3820667  84.0174961  32.6242828 107.9333591  88.1503677  19.6921766
 107.4701405  87.8661919  18.9041948 108.6211777  87.4960613  19.8147511
  96.1529922  61.1738396  47.4258757  95.4109859  60.8400679  47.9301023
  95.8731365  62.0412922  47.1335697 105.9077454  93.4173870  47.9378414
 106.1904144  93.5890102  48.8361025 105.3654766  92.6313400  48.0034351
  87.2490788  80.5601311  45.2327251  86.4007854  80.8973312  44.9447346
  87.2000504  80.5732632  46.1885786  32.8082347  10.3438318  40.9385490
  32.8486228  10.1586580  40.0003004  33.1641603  11.2283123  41.0236597
   7.0967764  65.5246019  20.8647871   6.6456479  66.0064030  21.5580273
   7.7234823  66.1525822  20.5054617  18.4790587  63.6026621  64.8226643
  18.9842308  62.7926874  64.8932028  17.9904568  63.6525202  65.6442547
 103.6291695  55.5655766  86.7703056 103.0892849  56.1522627  86.2406349
 104.4565105  55.5049849  86.2927341  45.8100605  10.4697096  64.9305344
  46.4098310  10.6126356  64.1983604  45.9401274   9.5524174  65.1711369
 108.3824730  87.7066708  39.5346212 108.9871216  87.1812725  40.0586319
 107.5188732  87.3418522  39.7278404 113.5015965 101.4264202  21.8999815
 114.3908119 101.1106300  21.7393637 113.1836987 101.6955853  21.0381675
  16.0911453  70.1070166  48.9338398  16.4521420  69.3871641  49.4512606
  16.6094184  70.1069593  48.1290865  23.3047295  72.7624893  35.7909679
  23.0990386  72.5017977  36.6887236  23.9354682  73.4760141  35.8873010
  56.1555576  60.9128046  84.1939831  55.2639818  60.8451986  83.8522816
  56.2760353  61.8467188  84.3657970   9.8233896  54.0504599  45.2497244
   9.2315215  54.7548819  45.5137539   9.9296844  54.1681337  44.3057489
  99.6583462  99.0542984  20.5101252  99.9854088  98.2476807  20.1118374
 100.2791691  99.7276402  20.2318716  88.3118916  99.2226505  69.0919447
  88.7199593  99.6244907  68.3249807  87.4947071  99.7069454  69.2098188
  10.3190887  93.7408924  42.3691416  11.0409498  94.3685150  42.3339748
   9.5578581  94.2650890  42.6180983  19.1225553  69.7157717  68.7281275
  19.2584944  70.6416798  68.9292383  18.7660611  69.3451500  69.5354605
   5.4612643  99.6652889  34.8746991   5.7700557  99.9000359  33.9996123
   5.7441992  98.7585831  34.9933028  69.7833252  99.8453140  34.6190906
  69.4690609 100.3081131  33.8423824  70.6580830  99.5401287  34.3784785
  75.3530645  84.2091179  30.8160210  75.7350349  85.0830364  30.7347941
  76.0105848  83.7038326  31.2941289 108.8151264  81.4236927  38.0060434
 107.9869747  81.6945553  38.4023166 108.7351894  80.4747772  37.9090595
 107.8874493  91.2173843  14.2236590 108.2747364  90.3525448  14.0884066
 108.5558510  91.7068005  14.7031760  29.8893929  50.4418468  82.4453354
  29.2694044  50.3456116  81.7224312  30.7109261  50.0875425  82.1050549
  27.0299816   0.3194193  55.6996822  27.5321531   0.5380092  56.4847136
  27.6347375   0.4815267  54.9756479  95.9116459  98.0310917  52.4753761
  96.1835670  98.2518768  51.5845680  96.7035198  98.1411552  53.0017376
  68.1391191  70.4363251  83.3434010  68.4354210  69.9399519  82.5804806
  68.7974358  71.1224794  83.4531498  71.6313076  88.8365173  12.9017198
  70.8406878  88.8860607  13.4390271  71.9907522  87.9683018  13.0840039
  24.2904162  19.4876564  36.3337159  25.0565338  18.9198756  36.4169121
  23.7691712  19.3025851  37.1149230  37.2131658  86.6905975  56.6621017
  36.9913483  87.5898266  56.9037962  36.4051986  86.3360977  56.2909603
 113.1053162  98.2721424  43.3096790 113.7016773  97.6119137  43.6627626
 113.6310577  99.0708351  43.2658291   2.6019916 105.7149029  13.0272782
   2.2382541 105.6583786  12.1436882   2.6057199 104.8112869  13.3430171
   5.8326548  77.5483799  48.0173826   5.7008088  78.4961128  47.9917908
   6.0083437  77.3557901  48.9383984   7.3306125  46.0102081  31.8798375
   7.9842532  45.4516506  31.4591289   6.5881383  46.0068178  31.2757254
   0.7557124  84.3910599  60.6028175   0.3413717  83.5493469  60.7927322
   1.4465636  84.1815472  59.9742842  80.1347637  77.5904274  81.7427540
  80.5061626  78.3368778  81.2725258  79.1891241  77.7360535  81.7145634
  38.6473346   5.5836362  70.5602455  38.3838105   5.8638394  69.6837330
  38.8196874   6.3992250  71.0307121  43.0812168   4.8189318   1.1465869
  43.6663818   5.5150342   0.8478262  42.9476500   4.2701742   0.3737629
  94.9991894  90.0583363  20.9974074  95.4911232  90.5247593  21.6731906
  94.2291069  90.6050110  20.8414078 101.7948055 103.8087273  32.6305580
 102.6210403 103.3790302  32.8517723 101.2748337 103.7552547  33.4324312
  43.1890297  13.2089031  88.0910015  42.4808168  12.8836393  88.6467743
  43.9894104  12.9196632  88.5291386  16.6529250  68.2068539  24.6182775
  16.7527699  67.3446560  24.2146921  16.9132912  68.8232851  23.9338398
 102.9271221  66.3398361  69.0051842 103.1662750  65.4149151  69.0647936
 103.7643433  66.8037891  68.9991093   6.2302214  52.3633957  66.8748474
   5.7529813  52.4416685  67.7008915   5.8571583  53.0460119  66.3170910
  20.2815056  66.9717741  67.8416395  19.9430621  67.7899742  68.2052803
  20.9253335  66.6725492  68.4836578  99.9947071  84.2653561  41.6045427
  99.6597385  83.3971214  41.3805103 100.7641697  84.3766308  41.0461760
  98.3105659  90.5378628  47.3916531  99.1715336  90.2071571  47.6477718
  98.2391739  90.3246784  46.4612293  87.5471687  95.9725475  18.8281953
  87.5208664  95.8012581  17.8868139  86.6289997  96.0743141  19.0788674
  25.6811905  15.7533574  31.8559027  26.0403752  16.5946651  32.1377230
  26.3135338  15.4249954  31.2167215  88.6956882  96.5540028  49.9039555
  88.0190945  97.2213745  49.7896624  88.2108498  95.7529640  50.1027155
  41.6645908   6.5497833  39.4353437  42.2469521   6.5445161  38.6757016
  40.9387016   5.9784162  39.1846204 111.5139961 101.0272694  59.5795250
 111.0416603 101.8574333  59.6423531 111.4515972 100.7855320  58.6554575
  16.9571257   8.6353445  45.9785366  16.3613307   9.3480742  46.2093496
  17.7050424   8.7489605  46.5650034  13.9662755  62.4673128  22.4371243
  14.5040810  61.9165373  23.0060220  13.0652368  62.2288752  22.6550817
  92.0918465  48.4638071  41.4174700  92.6266193  48.3464956  42.2026396
  91.4259720  49.1016722  41.6743088  34.4387341  73.8659954  33.1120324
  35.1252842  74.3580914  32.6617861  33.8316417  74.5355368  33.4272861
 112.6070976  23.0544066  17.1184373 112.8191948  23.8878870  17.5386286
 112.0153332  23.2901263  16.4039576  54.4271612  15.8047712  92.4265957
  54.9281979  16.3594067  91.8286133  54.1546154  16.3950408  93.1291103
  10.8432198 106.8291283  12.4957728  11.1225080 105.9904957  12.1284509
   9.9304712 106.6883278  12.7473664  15.6841934  67.0847178  55.5930853
  14.8555934  66.9333696  56.0477829  16.0461950  66.2091064  55.4571056
   2.7289504  78.2187033  53.7822294   3.3374986  78.9293098  53.5799026
   2.5406191  77.8160000  52.9345274  18.9984834  57.2637272  52.9529524
  18.9749670  57.0456457  52.0212269  18.3701921  56.6640234  53.3552408
   6.4631081 102.2621441  65.8874416   6.2357616 101.3376999  65.7876968
   7.0405793 102.2857952  66.6504622 108.6678791  70.4414797   7.1580261
 107.8226280  70.0320244   7.3427767 108.6050510  71.3102102   7.5549972
  84.4246101  92.5116825  48.5656786  84.5922756  91.6431999  48.9315510
  85.2768707  92.9471207  48.5821199 113.3203125  85.5718708  65.0166225
 112.9631615  85.0099182  64.3289566 114.1334534  85.9156895  64.6467304
 111.0161972  96.3139629  32.9589629 110.6443119  95.5546379  32.5102425
 111.0958385  96.0374069  33.8718724 107.7547646  85.5844498  58.7559748
 107.3676682  86.3960934  58.4279299 107.6301193  85.6257534  59.7041273
  47.8976631   7.9297185  36.5317106  47.6122665   8.7729448  36.1799312
  47.9297829   7.3509324  35.7699990 107.5909328 100.7668686  70.8278513
 107.8177071 101.6837120  70.6723070 107.4488926 100.7122707  71.7728806
  74.8376751  61.9681358  61.4705563  75.0448227  62.8928947  61.3358545
  73.9361095  61.8772411  61.1620903  33.9787221  16.2494755  39.1237044
  34.5358491  17.0133615  39.2731023  34.1419721  16.0086334  38.2117963
   4.5939454 103.6593246  67.4789333   5.1581478 103.1898308  66.8645430
   5.1972479 104.1842365  68.0049849  69.1704464   5.3447515  15.2738941
  68.4176445   5.4024363  15.8622754  69.1763496   6.1818600  14.8097324
  41.6629791 103.8635063  13.1506801  41.9325972 104.4986343  12.4872422
  41.2798071 103.1428528  12.6506174  12.8012705  57.3261929  82.5360966
  12.4313939  58.0319595  82.0057011  12.3288679  57.3781967  83.3669758
  69.9384165   3.5002360  26.9113851  69.0490723   3.1978115  27.0953393
  70.4222679   2.7033806  26.6942620  32.6602006  99.4046974  46.6630363
  32.4456882  99.7853756  47.5146770  32.0898056  98.6392689  46.5923071
  55.6121540   7.8451431  44.6045399  55.9755230   8.6250079  45.0240707
  54.7604799   8.1273979  44.2710543  27.0354271 102.0179081  33.5883546
  27.0756435 102.4184227  32.7199078  27.0515656 101.0760021  33.4186959
  20.2990270 106.0458755  21.3934588  20.4099417 106.7426014  20.7465363
  19.4260240 105.6940746  21.2192869  75.4424143  42.2162914  87.5991535
  75.8417368  41.3513660  87.5060081  74.7534513  42.2348118  86.9349098
  30.7577825  10.0452614  45.5562115  31.0094666  10.7957768  45.0180578
  30.3247905   9.4477862  44.9464846  59.8859978   1.6606160  31.2376451
  58.9464951   1.4924845  31.1648345  60.2533865   0.8348005  31.5527391
   5.0170451  35.5636430  90.6301498   4.4874078  35.5547094  91.4274120
   5.3685033  36.4528918  90.5860329  75.7890415   1.9592349  17.9002857
  75.7892990   2.4394150  18.7283301  76.4768076   2.3762795  17.3813605
  14.4704652  82.4416733  67.8026628  14.1980469  83.2944298  68.1415176
  14.4668663  82.5496101  66.8515730  84.5881844  81.0649490  44.5156813
  83.9171219  80.7160378  45.1023388  84.1280079  81.2201977  43.6908388
  31.5257788  80.9943676  30.6704402  31.3506842  80.3155041  30.0187278
  32.4393964  81.2385368  30.5224109  46.6887236   0.6041500  36.7618942
  46.2789965   0.4190385  35.9168577  46.3147831   1.4432868  37.0306873
  27.4543810  35.9278107  33.2127571  27.9357004  35.8520389  34.0366650
  26.5689349  35.6322718  33.4245872  15.6375718  97.5383282   5.0744593
  15.0032890  97.9745007   5.6433797  15.7979643  98.1655598   4.3694207
  57.3553944   8.4386718  50.9284830  56.9973564   8.6700761  51.7855072
  56.8666840   7.6580834  50.6675720   6.2640643  57.7193689  55.6485367
   7.1542698  57.7650928  55.9973574   6.0726577  56.7826319  55.6025505
  20.2623343 100.4012871  35.8364868  19.4234622 100.7972717  36.0725474
  20.4124117 100.6789589  34.9328232 106.4902020  53.8014936   8.9915049
 106.9468212  54.4511461   9.5259959 107.1490479  53.1295586   8.8164210
  54.2053223  16.0367596  27.1190953  54.3405390  15.1067734  27.3009586
  53.9892340  16.4182568  27.9699755  99.9762726  24.8121309  69.3285990
  99.2376232  24.9407792  68.7335491  99.5761108  24.7409749  70.1952267
  51.0292101   4.2350158  24.4015169  51.5892029   3.7454230  23.7990737
  50.3729439   4.6455041  23.8384461  94.6314907  21.7892218  90.3619480
  95.3415775  22.0842171  89.7918701  94.6904087  22.3562193  91.1308956
  68.9796448  50.2548504  30.8461070  69.1218710  49.3156242  30.9638333
  69.3676043  50.4507971  29.9932742  97.3213768   4.0703782  53.0797863
  97.6901722   4.1353714  53.9606905  96.5695190   3.4860715  53.1774092
  81.3368893   4.3408746  53.8885021  81.9122982   5.0613958  54.1453791
  80.4675198   4.7373277  53.8313818  85.9312949   0.5452225   5.1481837
  86.6413626   0.0718758   4.7146192  85.2871499  -0.1304748   5.3597170
  27.2792435   9.4726831  41.2627554  28.0031848   9.7039557  40.6808138
  26.7569995  10.2724540  41.3248730  34.8256898  34.5181513  26.3355684
  34.4761205  33.8075399  25.7979226  35.6884599  34.6987009  25.9623885
  57.5574541  19.0786624  31.0517526  57.0924997  18.2466781  30.9631538
  56.9222975  19.7387481  30.7740951  40.0738430 102.2981548  46.0394335
  39.9718428 103.1765842  46.4057493  40.6123543 101.8327808  46.6794872
  23.2529759  23.5946131  21.2896419  23.2849956  24.1335702  20.4992437
  23.1013131  22.7060437  20.9676576  43.8130379   9.6008372  42.4162054
  44.0144825   9.7237349  43.3438635  42.8751993   9.4101769  42.3979807
  88.1202221  18.0631256  28.3277941  88.1266880  17.1261966  28.5236382
  87.3596001  18.4013402  28.8003278  95.9832191  21.7349505  58.2936382
  95.5526447  22.5863075  58.2159853  96.0550117  21.4197922  57.3926640
  22.8558207  85.7171154  14.5233762  22.0436049  86.1574268  14.2730534
  22.5707746  84.9686241  15.0475347  14.7952914  89.6896362   4.6065256
  13.9582431  89.4907665   5.0260872  15.3592682  88.9507580   4.8350278
  91.4523792   9.4977748  36.1040998  90.5256939   9.6988958  36.2346816
  91.4524555   8.6677372  35.6273723  52.1818018  28.5880637  20.5113506
  51.9051695  29.0565228  21.2989116  53.0500412  28.2479644  20.7275152
  40.9055996  16.0129762  14.4386137  41.0439062  16.0643005  15.3843772
  40.1509094  16.5788257  14.2758632  34.4665074  18.9436030  36.8682933
  35.0061989  19.0907240  37.6450300  35.0226212  19.2101979  36.1362410
  47.7534389  16.2138915  24.9823570  47.2087145  16.4827371  25.7221055
  47.7386189  16.9646084  24.3886924  82.6416016  18.7789321  35.1390886
  83.1991196  19.3506873  35.6668234  81.9301891  18.5278630  35.7282352
  67.5163889  26.0045552  62.1326017  67.3233175  26.6136003  61.4198494
  67.5604534  26.5561461  62.9136515  40.8150101   1.3097040  37.2073221
  40.7016754   0.7166462  37.9500651  39.9712801   1.2918174  36.7556262
  10.7371008  96.0849476  32.1423507  10.1023674  96.0490036  31.4267707
  11.5468216  96.3850689  31.7294192  61.7778587   5.5721778  55.9883642
  62.4863100   4.9446851  55.8448935  61.0561371   5.0445199  56.3303089
  65.7185411  10.3897393  89.4304371  65.2317190  10.6781924  88.6583996
  66.3612366  11.0828984  89.5811176  62.0057249  20.5584073  33.3749890
  61.8163538  21.4615822  33.6292458  61.2601948  20.0558138  33.7033367
  35.6311393  94.0792847  20.8748078  35.0302148  93.8055325  21.5677571
  35.4043627  94.9942970  20.7087827  52.7736712   8.8070709   8.0121547
  52.1699619   8.2829481   8.5385203  52.7521801   9.6746969   8.4158802
  37.0221567  18.0052519  32.2314835  37.8942871  18.0371988  32.6246810
  36.8643904  18.8984954  31.9257736  58.3807611 102.3226738  32.6104164
  58.2747412 103.0406666  33.2345057  57.5033426 102.1835899  32.2540212
  95.1208687  12.5760913  18.9413118  95.8220387  12.5007617  19.5885539
  94.3161678  12.4506247  19.4442451  53.0213928  10.8616996  11.5093911
  52.6783895  10.2698708  12.1789587  53.9724207  10.7920074  11.5925753
  57.2384787  17.5820518  60.1736069  58.1343269  17.6641977  59.8465776
  56.7637587  18.2998514  59.7545195  84.1561794  70.9453249  92.6229763
  83.5399437  70.8178043  93.3442402  84.1760731  70.1008272  92.1727943
  67.4408865   0.4984929  26.3240409  68.3442640   0.1972664  26.4210010
  67.3346090   1.1606913  27.0069981  10.4731679  89.4491100  43.4658718
  10.9872854  90.2349472  43.2804871  10.0246167  89.2565727  42.6424885
  69.4629240  19.6119130  26.1356282  70.0637197  19.7887492  25.4117489
  68.6033487  19.8683774  25.8015704  68.9214611  40.0686169   0.8163985
  69.5819378  39.3944025   0.6569031  69.3801641  40.8944845   0.6622323
  56.5398502  14.3830693  22.4887228  57.0503902  13.5735273  22.4737477
  55.7411861  14.1537988  22.9639077  18.6706102  95.1921654  22.2068882
  19.5878732  95.2206612  21.9347715  18.6600387  95.6273937  23.0593514
  54.5027113   7.4040061  39.7028375  54.4538450   8.2096791  40.2173615
  53.5920048   7.1252280  39.6072912  19.7236204  95.0734901  41.7638254
  20.0217628  94.4623947  42.4375534  20.4158425  95.7328033  41.7152357
  55.7928658  54.8187113  93.2008362  54.9230242  54.6774101  92.8271484
  56.3029194  55.1963615  92.4842739  31.5153694  93.2568073  13.3284724
  32.0789886  93.2223415  14.1013741  31.7522526  92.4783325  12.8243911
 112.8599644 103.1950092  35.8503962 113.1054401 103.4027576  34.9488354
 112.2416592 102.4688435  35.7690048  43.0301428   1.9252162  52.3373842
  43.9660120   2.0751740  52.2035933  42.6121712   2.7288201  52.0279503
   9.3849039  99.6163750  58.9882040  10.0588322  99.6055984  59.6678591
   9.3349820 100.5323792  58.7149096 104.6880054  80.8657837  13.4376001
 105.5647850  80.5102539  13.5828054 104.8402596  81.7511845  13.1072676
  49.3557215  46.8145323  36.9019413  48.9115858  47.0737505  36.0946131
  49.8368502  47.5965977  37.1723413  58.9052486  40.5884790  54.2320299
  58.4493160  39.7894049  54.4963026  59.7068930  40.2786207  53.8106203
  57.9321432  96.4635754  20.0192785  58.3511877  96.1528111  19.2167437
  57.6580334  97.3577785  19.8155689  64.0278006  27.5522041  46.3473225
  64.3054390  28.1472087  47.0438290  63.9340210  26.7037320  46.7803717
   8.9688373 100.2301311  51.0392332   9.9090290 100.0524807  51.0125589
   8.6522806  99.9754524  50.1725340 102.6512432  24.2909431  50.4651022
 102.3562717  23.9355445  51.3035011 103.4454155  23.7968683  50.2616215
  67.5492334  32.4905634   0.0473272  68.4303951  32.4735093   0.4208209
  67.1612358  33.2975173   0.3857302  33.7441826   0.1329306  30.4414415
  33.2201982   0.4349231  29.6995020  33.1003976  -0.1693124  31.0820842
  74.6738863  11.5597880  45.5400419  75.4364872  11.1549473  45.9532928
  74.9647570  11.7676139  44.6521044  39.5815897  39.0248179  24.4679546
  39.5239615  39.2975831  23.5522532  38.6935425  38.7458873  24.6911192
  75.7287264  31.7341542  11.4483893  75.3386497  32.2507334  12.1535242
  75.1823568  30.9499907  11.3954842  69.4047165  21.8407369  28.9132285
  70.0499058  21.1674690  29.1292667  69.4880009  21.9573832  27.9668212
  35.7232690  22.4726486  62.4350643  35.4472017  22.0827842  63.2645321
  35.2436209  23.2996511  62.3877335  74.0159130  12.0558572  33.4621549
  73.3059120  11.4509714  33.6772013  74.3778706  11.7186844  32.6426840
  57.2856188  29.1958523  31.6098189  57.1946335  30.1466846  31.6720295
  57.6765919  29.0484929  30.7486248  65.8038950   2.2951485   2.1561110
  66.5730095   2.5577220   2.6618326  65.5874825   3.0660731   1.6316384
   8.6995906  64.8425579  83.9502907   8.8298070  65.2424288  84.8101616
   7.8962046  65.2436924  83.6187840  28.6050940  78.7911558  81.8499565
  27.9596210  78.3345938  81.3103676  28.4934163  78.4178829  82.7242661
  52.9480791  98.4164906  34.6075249  53.0044508  97.6269817  35.1457810
  53.8286066  98.7906170  34.6381426  26.2939978 102.9149151  30.9360814
  25.3472567 103.0202866  30.8422208  26.4778519 102.0547295  30.5585766
  96.8608284  16.5669835  43.7985706  96.5593910  16.0752189  44.5624638
  96.1918926  16.4085364  43.1324911  37.8052711  15.1563752  12.3305833
  36.8972254  15.3876567  12.1351516  38.1931973  15.9668946  12.6604366
  62.5358677  27.3237348  35.5180955  62.5798988  26.9481826  36.3974452
  61.5997934  27.4343705  35.3515005  81.9400978  15.4459631  27.9036021
  82.3073578  14.6313679  27.5603962  81.0130692  15.2514017  28.0413961
  38.8615727  95.3392220  44.1451263  39.1435862  96.0838032  44.6764421
  37.9123282  95.4406738  44.0753031  82.4940109  27.6252222  37.5374651
  81.8263817  27.5519729  38.2194757  82.0284939  27.9899144  36.7847848
  76.5533972  33.5872865  27.9007149  77.2448254  34.1679382  28.2185292
  76.1948872  34.0378737  27.1360779  79.8943138  34.4407082  28.5733485
  80.4982376  34.3027306  29.3030500  80.2717209  35.1724839  28.0851817
  46.2892532  92.3882484  16.2019813  46.9573307  93.0274010  15.9542263
  45.7278824  92.8560066  16.8202829  46.3816643  13.7170613  15.0836205
  47.2793913  13.9952004  14.9020648  46.4437008  12.7690959  15.2008581
  52.7645731   3.7049627  45.5812168  51.8978977   3.4494457  45.2652836
  53.1885862   4.1036484  44.8212862  17.8502285  93.8027382  12.4312615
  18.2745659  94.5886421  12.7755213  16.9577241  94.0822124  12.2274017
  14.7908294  91.9380093   6.2626719  14.6650696  91.2832832   5.5758256
  15.2471960  92.6577377   5.8268362  44.6886826  27.5550556  49.5388174
  44.1133642  28.0921364  48.9940405  44.1268063  26.8479633  49.8559189
  57.7590942  15.5121934  35.1346612  58.0979156  15.4008782  34.2463803
  57.9632711  16.4205980  35.3567982  35.0848317 105.9883881  65.4620934
  35.5991530 106.7366409  65.1590633  34.2465711 106.0742950  65.0080395
  30.9736514  11.8047214   9.8444480  30.8258486  11.1460853  10.5231118
  30.1136971  11.9334400   9.4442707  51.0868788  32.2992015   3.6621761
  51.1207438  32.5923991   4.5727360  50.2664757  31.8102241   3.5983607
  66.6819334   6.6331983  30.2279449  67.1108913   6.0142189  29.6371055
  65.7461262   6.4847440  30.0920868  87.4679661  26.8900371  18.0034542
  86.8787575  27.3185349  17.3826015  87.7032566  26.0646081  17.5797367
  59.6659184  18.8490760   5.2046651  59.0379667  19.3778741   4.7124460
  60.3138304  18.5791290   4.5538449  64.5794344  34.6249223  36.7583942
  64.9172401  34.0567470  37.4507070  63.6703634  34.7915077  37.0075274
  46.6406536  35.3094649  37.9725957  45.7761335  34.9218988  37.8360868
  46.7157173  35.9745765  37.2883272  80.5665207  14.6777749  60.4870844
  80.1790810  15.5453706  60.6028366  80.8957577  14.4447434  61.3551426
  47.4413061   6.9789684  17.5736237  48.2581758   6.6140014  17.2333968
  47.7078629   7.7749676  18.0335844  76.8045855  14.8462617  65.3655767
  77.0368242  14.8046613  66.2932491  76.3563108  14.0182030  65.1935339
  11.3613427  99.3393898  38.6541939  10.5392289  99.1793156  38.1907988
  12.0184386  98.8613224  38.1483173  36.2126875   0.5604347  31.6211414
  36.1393976   1.5034527  31.7680335  35.4110575   0.3280158  31.1525249
   3.5751235 101.2009048  86.1618328   3.2652581 100.3311062  86.4141560
   4.1873023 101.0382080  85.4441929  57.1796274  12.8523529  41.2599850
  57.5789452  13.7215352  41.2960196  57.8969431  12.2693443  41.0114145
  83.1000328  12.5231063  47.4893379  83.1210136  11.5722454  47.5972891
  82.1688652  12.7446795  47.4983025  57.2474289   5.0474405  30.3890085
  57.0675278   5.8636481  30.8555627  58.1612349   5.1247364  30.1147532
 105.2964020  95.9889317   4.7564313 106.0059834  96.4229298   4.2827481
 104.7364426  95.6267452   4.0697706  10.6856740  41.6738415  26.2778950
   9.9951482  42.0159864  26.8456483  11.1599815  41.0496521  26.8271232
  16.0376096  97.6645279  23.3088326  15.7065248  96.9853497  23.8964844
  16.5853357  97.1924210  22.6816607  79.5924473  16.8142760  23.3860731
  79.8459053  17.0843256  24.2687178  78.6616898  16.6028309  23.4582996
 107.2619057  48.0033636  43.9796686 107.4802589  48.7807989  44.4936180
 106.4128590  48.2064581  43.5871077  73.2975912   5.8833396  64.3297338
  74.1517067   6.2489218  64.0993834  72.6655149   6.4919651  63.9472580
  46.0477638  19.8619616  34.3212962  46.3187790  19.4989812  35.1645207
  46.4119148  19.2592597  33.6729312  80.1545334  30.9153581  40.0409746
  80.7740116  30.4053068  40.5628347  80.5860806  31.0215712  39.1932034
  23.9400768  87.9548264  41.5928268  24.7353268  88.4623337  41.7548418
  23.9880180  87.2292519  42.2153044  54.1576767  96.0872936  25.8458018
  53.4536600  96.2924767  25.2305841  54.6104002  96.9202137  25.9781694
  46.4218569  18.3081126  32.0488834  45.5047512  18.2770801  31.7765188
  46.8915176  18.6167336  31.2740254  70.1065969  14.9394464  13.8891661
  69.7387266  15.8196652  13.8109517  69.5588541  14.3994427  13.3194232
  29.6750641  94.0470600  36.1948752  30.5980277  94.2015266  36.3961482
  29.4929385  93.1797600  36.5566087  62.0571184   9.7251719  39.6114349
  61.1521721   9.7689545  39.9202776  62.0906448   8.9296782  39.0801191
  68.0395603  47.7544451  21.0895801  67.1092367  47.5745821  21.2251687
  68.3896208  46.9423199  20.7233191  42.3516035  28.9002490  44.4915581
  42.0549583  29.7385621  44.1373444  42.8100109  28.4812260  43.7631941
  55.1230383  31.8285513  28.4054756  54.5924568  31.6909885  27.6207519
  55.4480219  30.9568357  28.6307096  14.4292188  72.6397991  19.6081340
  14.4709408  73.3456182  20.2533579  15.1677108  72.8067160  19.0224719
  50.5456400  27.9127860  43.5243607  50.8711815  27.3399973  42.8299761
  51.3348150  28.2884407  43.9146328 107.6892376  67.1627188  89.7723103
 106.9121265  67.3586416  89.2489147 108.3952808  67.0804691  89.1312504
  96.1086941  68.8037157  83.3768082  96.2996578  69.7373819  83.2872486
  95.3128529  68.6715221  82.8616333  49.6752501  98.3469963  69.5742750
  49.9661016  97.6954269  68.9362383  48.8183069  98.6293316  69.2546320
  27.0458460  98.0714417  40.4346561  26.2586713  97.9215240  39.9110961
  27.6202416  97.3366356  40.2193451  44.7075748  58.0905628  32.3554015
  44.0102720  57.5241375  32.6857972  44.6478987  58.8813972  32.8913569
  88.3137226  27.9686403  22.0222211  88.1156158  27.3785925  22.7494287
  89.0317345  28.5134101  22.3445773  43.8242388   8.8434696  28.8591027
  44.5648432   9.1295505  29.3937898  43.7354994   7.9102331  29.0525627
  97.1233654  30.6879997  55.3008699  96.2793732  30.3928900  54.9590683
  97.0137691  31.6302776  55.4286766  61.7042971  35.6819963  46.6037321
  61.3014889  36.5411639  46.4780092  60.9643936  35.0810862  46.6913652
  24.6501470  89.8654079  20.2199793  24.9540448  89.0399170  19.8425674
  24.2388868  89.6136856  21.0468602 100.4918671  59.2361164  74.8954964
 100.6573009  59.6841574  74.0659666  99.8853207  58.5307980  74.6699524
  72.6539850  53.2927227  27.7739215  73.2806110  52.5695801  27.7487254
  72.2299004  53.2721615  26.9160414  85.0564671  13.7720120  29.9317884
  84.2083454  13.3304346  29.9757433  85.1107502  14.2682397  30.7485175
  59.3358850   4.6957043  16.3568056  59.7085857   5.5711776  16.2525356
  58.7198067   4.6094608  15.6293142  35.1579618  65.0570059  22.8198695
  34.2559505  65.0170851  23.1377006  35.4281998  64.1413689  22.7504826
  65.6018066  18.4405887  45.4827023  65.4072762  17.9016709  44.7159195
  66.2748528  17.9507303  45.9552288 106.5932465  22.9677463  17.1459603
 106.6339779  22.0145631  17.0683956 107.2889996  23.1875825  17.7655005
  82.6640606  11.1638582  17.6873744  83.0457687  11.5888286  18.4554458
  81.7457867  11.0275578  17.9206550  89.8408508  19.3402290  40.8832693
  89.0925312  19.7290802  40.4304457  90.5997086  19.8131335  40.5416059
  86.7303753   5.4355466  16.9488871  87.6759624   5.3392345  16.8356562
  86.5544415   5.0695562  17.8156793  91.0776234  24.8079848  49.1289711
  91.5410137  25.5892324  49.4308901  91.3953876  24.6709490  48.2365131
  52.2786188  15.5803609  13.4763789  52.2966242  15.5859852  12.5193644
  51.8572378  14.7513533  13.7031364  70.3247070  22.8562140  37.7692962
  69.7455215  22.9477811  37.0127296  69.7999525  22.3859191  38.4171271
 102.3670483  21.5434003  14.2542863 102.9996300  22.1344209  13.8459074
 102.7328777  21.3621640  15.1200545  77.2846508   9.6193892  35.9631085
  76.7176056   8.8551593  35.8599544  78.1590796   9.2528367  36.0944510
  42.9535103  14.9257088  27.4594498  42.7661085  15.5918717  26.7981315
  42.8499746  14.0937984  26.9974566  66.5332460  35.7770896  53.5613108
  66.2115812  36.1860919  54.3647289  67.4609184  35.6130719  53.7308645
  49.0199280  20.2186513   6.6855747  49.7619438  20.2130842   6.0809135
  48.7759352  21.1414862   6.7568141  41.8319988  20.7463384   0.7416936
  41.0839272  20.1504302   0.7806067  41.5399551  21.4607000   0.1754526
  31.5402746  21.4812875  31.0690093  31.7879915  21.2540102  30.1727891
  31.7312264  20.6931067  31.5774775   0.7951717 101.1581421  83.9377308
   0.0691113 101.7179966  83.6627007   1.5676850 101.7199039  83.8754463
  39.9747252  35.0110245  10.5245709  40.8839083  35.0658584  10.2302718
  39.9144125  34.1600680  10.9587002  46.9204044  18.9289963  24.2720222
  47.2913599  19.4802952  24.9610019  47.0442486  19.4340944  23.4684253
  32.5285053  71.5224791  64.2837572  31.8224883  71.1966753  64.8419905
  32.8709912  70.7409096  63.8500690  48.2415724  31.1221623   8.7318283
  47.3086500  31.3212156   8.6526901  48.2758856  30.1707602   8.8312626
  39.4479179 102.1059036  24.9607682  38.8146234 102.5172138  24.3725538
  40.3012133 102.3665524  24.6140933  93.9970303  52.0947504  23.4506750
  93.1843662  51.6300917  23.2508969  94.5633030  51.9210577  22.6987481
  73.8639164  35.3873181  40.5244064  73.3676529  36.2018919  40.4442549
  74.1604424  35.3760648  41.4344501  68.1956100  27.9338312  34.0517282
  68.3960295  27.3717546  33.3033061  68.7950325  27.6412964  34.7382736
  73.5839272  17.3769784  72.5743675  73.5386944  18.3083582  72.3582315
  72.6814699  17.0682800  72.4937057  14.2283416  90.8036613  45.8468151
  14.9400938  90.1871586  45.6748629  14.2358291  91.3942719  45.0935888
  31.5286565 103.8908100  10.1465786  31.4623761 104.1181278  11.0740304
  30.9979272 104.5503235   9.6998119  85.8324051  21.9315577  34.3141866
  86.2093544  21.4972758  33.5489774  85.3859234  21.2318611  34.7909522
  47.4871445   9.8477632  59.6140146  47.2323370  10.5881214  60.1646280
  48.0165625  10.2376688  58.9183712  89.7725964  36.1959982  12.1471643
  89.4116688  35.3726506  12.4758947  90.3504372  35.9348607  11.4301312
  94.6003723  12.4205720  40.0900221  94.5560169  11.6430366  40.6465292
  93.7081337  12.5312030  39.7615266  89.3785286  26.2030816   1.1041001
  89.1136837  27.1161294   1.2155972  88.9986801  25.7498860   1.8567990
  19.1536725   3.9699703  80.7039642  19.6179175   3.1371740  80.6193447
  19.4437909   4.3214688  81.5456963  77.3969793  31.9043064  38.0618215
  77.7292776  32.6531196  38.5568810  77.3543882  32.2149539  37.1574330
  99.0091801  10.7619500  10.0679171  98.4643459  10.8185744  10.8528900
  99.0070915  11.6498554   9.7103554  71.2464857  28.9295244  54.7467375
  71.6248512  29.3505478  53.9748526  71.3512611  27.9921293  54.5838118
  56.6664457  29.4773936  28.2780838  56.6764498  28.6926556  27.7300715
  57.5872469  29.7270608  28.3557272  37.2532582  10.2501059  37.8119087
  37.8530359  10.9211707  37.4860692  37.4359989  10.2007341  38.7502050
  68.9737797  34.7895384  68.8679504  68.4654045  35.4777551  68.4388304
  69.6964836  34.6144557  68.2652283  86.2403488  34.0224004  21.9895387
  86.2192154  34.4899845  22.8244925  85.4498100  33.4827614  21.9971466
  65.9651661   3.6688057  46.6743231  66.7750931   3.6678293  47.1844673
  65.3373671   3.1960163  47.2207355  86.9130325  31.3765788  24.5498180
  87.4671745  30.7931495  25.0682497  86.6109276  30.8348036  23.8208151
  16.5767050  14.6316803  35.3305531  17.3922217  14.2973447  34.9572110
  16.8541706  15.3230965  35.9315419  32.1782851 103.5706234  52.1571112
  31.5673542 103.0805302  51.6068363  31.8316913 103.4744835  53.0441618
  95.9323978  25.8297729  50.4178286  95.0343227  25.5905318  50.1887989
  95.8577156  26.2465572  51.2762833  38.8208103  35.8489847   2.7588496
  38.6517501  36.6310620   2.2334881  38.1132507  35.8358550   3.4033799
  76.4481831   7.8801906  47.3155737  76.9386387   7.2264415  47.8138685
  75.7614994   8.1725496  47.9149246  12.3029542 104.7649860  14.8331261
  12.4986243 104.6338177  15.7608867  11.4146030 105.1213264  14.8237503
  68.6221075  10.3386343   6.0627228  68.5039949  10.6286132   5.1581824
  67.8564024   9.7926581   6.2411356  81.4049816  16.4663708  69.1579866
  81.4221668  16.3895452  70.1119471  81.1988544  15.5837226  68.8502932
  55.7191181  23.6375380  59.2958927  55.5273581  23.8812041  58.3903074
  54.8687363  23.6585975  59.7347927  78.8858318  44.7557640  28.8040376
  78.7443829  44.4239998  29.6906924  79.0538073  43.9729881  28.2793713
  34.3494415  30.4479909  34.4309998  33.6826086  29.9111295  34.8591900
  33.8626385  30.9729409  33.7956429  42.7837181 100.7361317  23.7314987
  42.0394278 100.6753445  23.1326914  42.9891253 101.6704559  23.7642026
  53.5363102  93.6658192  27.4660254  53.0484438  94.0631104  28.1874013
  53.6369896  94.3717861  26.8275046  79.5808506  17.7618504  67.0781851
  79.8095989  17.6674724  68.0028486  78.6640406  18.0368805  67.0851231
   5.5095291  91.4987087  12.4563169   5.4274440  92.2811699  11.9111109
   5.3750199  91.8142605  13.3499420  86.5279579  16.8964028  21.9531441
  85.6571102  17.1726537  22.2386837  86.3638687  16.1668313  21.3556218
  69.4184065  11.1018968  29.9734092  68.7677765  11.6809261  30.3704476
  69.1522598  10.2226019  30.2421808   0.8872290  85.2059746  91.4298248
   0.2526923  84.8645782  90.7997036   0.5615983  86.0791111  91.6485119
  79.8585606   9.0075070  41.7629528  80.6323624   8.7713391  42.2745037
  80.2061939   9.4830894  41.0084963   8.6063099  68.6580563  84.9881268
   9.2336434  67.9462433  85.1146317   9.1474432  69.4207478  84.7838974
  58.5069275  19.9830019  40.3967142  59.2526960  19.7077775  39.8635030
  57.8542614  20.2778554  39.7616410  50.4951429 102.8921413  13.1991398
  51.4206076 102.7921295  12.9761147  50.4397631 103.7546730  13.6104929
  99.6295071  14.9369478  58.7732887  99.7135925  14.3989217  57.9860830
 100.4042339  14.7233105  59.2932844  55.6991673  30.0631189  21.3910627
  56.6093063  30.1946545  21.1254048  55.5438185  29.1279173  21.2587881
  66.7251587   9.6729118  65.7863140  66.2286520  10.4475713  65.5224657
  66.3998795   9.4669688  66.6626787 112.2401905  65.9586191  87.4753571
 111.8615818  66.3005209  86.6654205 113.0922890  66.3895702  87.5420284
  90.8503723  70.6501484  90.6342602  91.0798359  70.3597498  89.7515106
  91.4479923  71.3768673  90.8102512  80.5659771  44.5104980  12.9709852
  80.0756645  44.3405390  12.1666551  79.9782848  45.0495958  13.5003495
   6.7078638  65.7187414  82.1409702   7.1942282  66.0859299  81.4028263
   6.2123710  64.9919271  81.7635345  28.5462856   3.7483346  51.9245815
  28.1314945   2.8944439  52.0472670  29.2426467   3.5870859  51.2879419
  46.0483932   3.9754385  29.1402364  45.2238178   3.8351470  28.6748099
  46.3883495   3.0943245  29.2961240  46.9953585 104.7719097  38.0655861
  47.1694279 104.4909286  37.1672654  47.3973465 105.6383801  38.1276751
  24.8330712 103.5125542  48.3115387  25.7843804 103.6179543  48.2999754
  24.6470118 103.1097984  49.1597176  89.5384693  51.9726181  24.0581226
  90.2379131  51.4005375  23.7423229  89.9478245  52.4917698  24.7503185
  56.9267178  64.7005272  15.5002367  57.3942566  64.4270468  16.2894452
  56.5761566  65.5644941  15.7168019  83.6584568   8.6492366  18.1196213
  84.4052505   8.3692342  17.5903451  83.4347820   9.5153582  17.7789831
  37.5666094  69.4800663  14.2926800  37.6733565  70.3317308  13.8690042
  37.4314022  68.8679600  13.5692978  77.1131420  33.9366746  31.4574957
  77.9255629  33.8783360  31.9602919  76.5405512  34.4880962  31.9906998
  54.6338654  27.5201845  31.7410731  54.0112925  28.1944370  31.4690065
  55.4662991  27.9844046  31.8293405 103.0618000  10.5596113  37.2077513
 103.9140415  10.6139195  36.7753458 102.8289890   9.6322548  37.1626091
  74.0483618   2.0938483  70.8074141  73.8703966   2.4348578  69.9309015
  74.9534655   1.7852409  70.7651377  95.3802013  15.1348925   5.1968890
  95.2554226  14.1928971   5.3122479  94.8352718  15.3580379   4.4422457
  65.3167915  22.6650834  33.0177498  65.5277729  23.4781170  32.5587296
  64.9668646  22.9504204  33.8617659  51.2291574  20.6937361  17.6718152
  52.1204662  20.8547187  17.9814804  51.1092758  21.3149977  16.9535553
  64.6153927   6.8661708  24.7611022  64.9515533   7.6456290  24.3187523
  64.1588211   6.3795030  24.0748596  30.0814605  83.8150597  21.5590692
  29.6788621  83.5090923  22.3717999  30.3261900  83.0135918  21.0964847
  88.9244556  39.2871308  32.1134138  88.7090111  39.5441699  33.0099320
  88.1691456  39.5665598  31.5960598  78.7368059  20.8580899  13.7863684
  78.3230448  20.1207495  13.3376312  79.3565702  21.2100768  13.1474435
  63.5160685  11.9898999  38.7126040  64.0014696  12.3826778  39.4380999
  63.1752825  11.1694050  39.0688157  78.7398577  18.4972537  73.0285883
  78.0767536  19.0677834  72.6399708  79.2678261  19.0804708  73.5738754
  69.9100161  14.1436172   3.6947069  70.6842041  14.5094430   4.1225362
  69.4255686  13.7161636   4.4009832 101.9264507  22.7977943  39.1524625
 102.8119278  22.5277185  39.3957925 101.5067673  23.0195785  39.9836731
  90.4663277  49.5643854   6.3068968  89.8500824  49.9506235   6.9292212
  90.6381035  50.2627182   5.6751853  95.5759621  23.6167789  14.3106771
  95.4144001  23.1879401  13.4703040  94.8652744  23.3127952  14.8752451
   3.5274771  41.2060022  81.5806866   3.7676376  41.2797070  80.6570435
   3.5046330  42.1098089  81.8950844  64.8291492  95.5214119  61.3536024
  65.7508373  95.4461098  61.6007042  64.6421957  94.7128010  60.8767176
  29.4570470  92.5184345  31.3655663  28.6132574  92.0684433  31.3237095
  29.4482422  93.1141090  30.6163502  52.9936743 106.0167122  52.3742151
  53.8451433 106.3650227  52.1098185  53.0568266 105.9258461  53.3249998
  75.9951162  14.0240896  37.8444076  75.6776381  13.1657887  37.5637603
  75.7659054  14.6114707  37.1242142  63.2404613   7.0699131  27.1938825
  63.5471916   6.1677909  27.1026444  63.6759233   7.5437713  26.4853191
  53.7710953  93.9458179  41.3587952  53.3286095  93.3298492  40.7748222
  53.0635977  94.4688416  41.7357922  43.7258244   7.2347540  11.6800487
  43.4666491   6.6048765  11.0075045  43.2479334   6.9598722  12.4625385
  20.3465867 105.0173759  71.1018610  19.5371556 104.5068455  71.0816813
  21.0162473 104.3936348  71.3824463  30.7484555  56.7612219  91.5450573
  30.7549596  56.0982943  90.8546066  31.2269878  57.5011301  91.1711979
  69.6332884   4.0269622  41.3275862  69.5788765   4.8028189  40.7696295
  69.4229412   3.2974803  40.7446241  64.3955612  12.4739373  84.6113682
  63.7415838  12.9829693  84.1323757  65.2129030  12.9562390  84.4866180
  22.3517990   6.3175547  31.5749049  21.8147254   5.9034777  30.8993864
  22.2277761   7.2566509  31.4372492  49.2755842  93.7514305  45.4235125
  49.8913622  93.1368446  45.0243473  48.5410500  93.7864780  44.8107624
  13.1300151 101.6139889  10.7797408  12.9672837 102.1587276  11.5498185
  13.3696949 100.7590866  11.1374104  86.3655186  25.3231359  27.2661877
  85.4376698  25.0887489  27.2463942  86.6441536  25.1227617  28.1597447
  58.3204174  18.2569528  22.0475602  58.1391335  19.0444314  22.5606346
  59.0969133  17.8768706  22.4584389  11.2576330  83.7794209   1.2964550
  10.9350991  82.9511547   0.9412335  11.0994017  83.7139320   2.2382121
  86.7733574   4.7700146  26.7971754  87.1662140   4.9038988  27.6597118
  86.1600590   4.0459675  26.9231009   5.2968252  27.6928830  35.6829119
   5.1468521  28.5705566  36.0342336   6.2428421  27.6490164  35.5437708
  56.9104624  87.6627636  15.8542907  55.9608173  87.7414417  15.9449410
  57.2099638  88.5563946  15.6871068  73.9663744   5.4966962  22.4859738
  73.2981014   5.6950301  23.1419563  74.1173410   6.3293082  22.0385408
  13.5681522   7.3634946  29.1533422  12.6367688   7.1513480  29.0921068
  13.8266087   7.5688159  28.2548571  39.5366502  27.7818179  27.3971438
  39.5007348  27.4580073  28.2971931  40.1800251  27.2194767  26.9657850
  78.4871006  22.7852225  51.8539000  78.7927437  21.8781590  51.8467045
  77.6363564  22.7547789  51.4162445  51.3489246   8.1528836  47.3416901
  50.8811426   7.4120748  46.9561815  50.6928158   8.5972494  47.8786135
  65.0079203  14.7304416  30.0744462  64.6860409  14.3111300  30.8724451
  64.5783043  15.5857396  30.0632787  29.4266582 102.3411369  25.7605767
  29.2857528 101.4941502  25.3375077  29.5120239 102.9599094  25.0352669
 109.5743942  34.9680305  43.2330322 109.4381905  34.4586492  44.0319109
 109.9443626  34.3423772  42.6102066  87.1417427  28.9250898  35.6730294
  88.0127811  28.5384035  35.7624769  86.6628361  28.6171865  36.4424896
 101.7970276  39.5531893  26.3712573 102.2853279  38.8704753  26.8313599
 100.9499073  39.1521287  26.1768985   4.9077466  42.5239229  16.9798553
   4.1818306  41.9215775  16.8171895   4.5317292  43.3939028  16.8457782
  66.5375185  49.3408489  38.2188416  66.2894630  50.2370310  38.4459138
  67.0838070  49.0511084  38.9494944 102.1322060  27.0874143  23.3831692
 102.8523254  27.2103763  24.0016770 101.8226624  26.1971235  23.5498905
 103.7696934  56.3433647  35.3734589 103.0874538  56.0532570  35.9789443
 103.5815048  55.8767080  34.5591807  54.3894482  10.1587069  37.0290947
  54.7956038  10.6720459  37.7274895  53.5197067  10.5441737  36.9233012
  80.2543259  27.3129845  56.6084099  80.5570507  28.2209754  56.5965080
  79.4243717  27.3434329  57.0843077 100.5084515  16.9283164  11.6407692
 100.0902271  17.1317661  12.4773848 100.0816154  17.5101423  11.0118675
  47.8484917  36.2848163  17.4051559  46.9283581  36.5154004  17.5333071
  48.1920767  36.1692643  18.2910597  56.1371136  16.1030972   0.4589666
  55.3581572  16.3368952   0.9637434  56.5055037  15.3505754   0.9218183
   2.3754340  21.7980790  37.6582384   1.8129082  21.1263442  37.2727919
   2.1707991  21.7743635  38.5930085  58.2811213  28.3870769  20.8424592
  59.0222740  28.9614916  20.6501818  57.9291534  28.1544781  19.9832439
  99.5298290  53.6032867  70.9420872  98.8897514  53.0063295  70.5545568
 100.2176952  53.0300999  71.2804890  81.0207367  30.2380753  51.1753607
  81.2118149  29.3181896  51.3584757  81.0096073  30.2947950  50.2199078
  85.7253361   8.2001865  16.7111218  85.5069065   8.4065795  15.8023190
  86.3227654   7.4547780  16.6505122  60.9847736 104.4859314  58.8862562
  61.4743805 103.6898613  59.0930843  61.5389633 104.9521542  58.2603598
  54.5414448  31.0241818  42.7233076  53.7660694  31.0750031  42.1643448
  54.5335388  31.8430686  43.2188797  24.2358828  68.2668400  29.9290752
  24.0994620  67.3244572  30.0267434  24.9328589  68.4737492  30.5516863
  64.1571331  39.1729164   1.9543339  63.2149076  39.1732812   1.7856760
  64.3492937  40.0653934   2.2420684  99.9441147   1.0810856  18.9659095
  99.2920303   1.7786734  19.0321696 100.1916790   1.0716737  18.0413258
  51.9988918  26.4945793  63.5990238  52.1026230  27.3183632  64.0753174
  52.8546190  26.0706902  63.6644554 104.7672081  40.3849173  65.6385374
 104.5459080  40.2401543  66.5584850 104.9975967  41.3127470  65.5907536
  72.9270601  96.5019512  39.1779613  73.3236742  96.3543129  38.3193994
  72.8690910  97.4543285  39.2544413  70.4419661  26.5725541  36.3227868
  70.2533388  25.9225154  35.6459570  69.8864222  26.3189769  37.0598793
  74.5160770  15.3791356  57.0303488  73.6210394  15.1656687  57.2941208
  75.0305128  15.2870703  57.8322935   7.6431090  24.1221952  16.2845457
   6.8462414  23.6122537  16.4301264   7.9971385  23.7837625  15.4621351
  92.8578377  30.5608106  20.4482007  92.6169777  30.5350709  19.5221579
  93.0306339  31.4855123  20.6251240  86.1379623  47.6137590  12.3297346
  85.9516430  46.6819668  12.4449658  85.3058815  47.9908323  12.0439148
 109.7881031  34.0288305  15.8359218 109.1773701  33.4980607  16.3473070
 110.2089882  34.5975971  16.4805865  89.2430496  41.1889458  69.3016672
  89.7179604  41.9687653  69.0143013  88.3366489  41.4817667  69.3961477
  90.3028965  30.1578164  53.0120134  89.7520161  30.9371352  52.9383850
  90.8549118  30.3259921  53.7757063  88.6674404  56.1221695   9.6334594
  88.4305954  56.9383717   9.1930550  89.4656944  56.3340139  10.1173472
  91.8016052  34.7505498  41.8509769  91.7284203  35.2923203  41.0652542
  91.0026646  34.2233801  41.8536901  59.7022820   2.7932408  35.6600213
  59.3131018   1.9370580  35.4819179  60.2673388   2.9610482  34.9058461
  99.4249535  29.6818113  20.8851743  98.6697674  29.7027230  21.4729595
  99.1621685  29.0920806  20.1784945  50.2809477  13.4416592  47.4402332
  49.9719810  14.3175638  47.6716661  51.2073183  13.5618699  47.2313881
  78.2469130  36.5065670  26.7612004  77.4769688  36.8344927  26.2965727
  77.9701567  36.4537811  27.6759958  44.6014071  85.9713650   2.5567937
  45.5404615  86.1322212   2.4643813  44.3470907  85.5570602   1.7322332
  66.3437891  48.9210892  42.4862719  66.9675112  48.8634300  41.7624760
  66.2497854  48.0195379  42.7938366 113.7113353  15.8250344  21.2557292
 114.3241331  15.1127946  21.0729074 113.0318041  15.4233050  21.7970991
  93.8080788  37.7739668  46.5776825  93.8122845  38.7309122  46.5559912
  93.4978390  37.5556755  47.4565029 105.2966309  26.9382977  32.3745847
 105.2977562  27.0656824  31.4258981 105.8583260  27.6366973  32.7106929
  85.0863266  17.1299779  33.1437850  85.4786682  16.3023734  33.4219432
  84.1429138  16.9809937  33.2069898  54.7752523  31.3328624  60.5669165
  55.5645943  30.8123660  60.4177475  54.9121714  31.7351675  61.4246082
  59.3562222  55.5377674  20.8701444  58.8573313  54.8029232  20.5133009
  60.1580238  55.5590820  20.3477526  71.7678261  19.8305249   8.0777407
  71.1185217  19.7372699   8.7748313  71.8709612  18.9460504   7.7265978
  57.3973513  34.0974712  31.8378496  56.9123983  34.5503330  32.5277543
  58.2003689  33.7998104  32.2653961  89.4190598  11.1169004  57.2685003
  89.8438168  10.7182574  56.5089607  88.8156223  10.4449189  57.5855684
  62.5604963  37.4266791  24.3910694  62.3911619  38.1456828  24.9998307
  63.2648134  37.7495718  23.8290119  81.0372257  28.3815026  35.2491593
  81.5251827  27.9726243  34.5343518  80.1991558  28.6271119  34.8573017
  96.8273640  10.1327610  18.4831321  96.5009975  10.6940508  19.1864622
  96.9706726  10.7288051  17.7479935  87.0955181   0.5583546  28.7773943
  87.8802967   0.9709874  29.1380763  86.3953781   0.8067263  29.3810010
  48.8766956  17.5373387  44.4625998  49.4597197  17.6112878  43.7070608
  49.3108654  18.0418932  45.1504612 109.3122864   4.8782739  32.0911002
 108.5866928   4.2943150  32.3118949 109.0799809   5.2354228  31.2339473
  84.6420765   6.4124721   6.2534189  84.3607521   7.2591132   6.6002429
  83.8630867   6.0586613   5.8242106  66.2665939  93.9965153  33.4471869
  66.4506626  93.0810452  33.6575842  65.3140497  94.0692234  33.5072637
 102.2269917  16.5306520  37.7721381 101.5028000  15.9097636  37.8513193
 102.1358013  16.8939281  36.8912601  96.8242550  31.5571189   5.2589446
  96.3450241  32.3856974   5.2646112  97.6959038  31.7867684   4.9368966
  95.3687954  53.6472368   6.2532097  96.1602116  53.1104422   6.2948376
  94.6979713  53.0584860   5.9073699 113.6224542  31.1510372  10.1500368
 113.3279933  30.5668378  10.8487749 114.2265051  30.6192183   9.6318454
   7.0061725  14.2846072  30.3983760   7.0557642  13.3524656  30.6102347
   7.4856424  14.7167182  31.1052155  97.2940254  44.4688845  58.5144234
  97.4325180  44.3031073  57.5819159  96.5206432  45.0320578  58.5452986
  74.7054720  37.8623962  21.0664558  74.3874359  38.6567354  20.6373763
  74.7922421  37.2254276  20.3572512  56.1195040  49.7326517  37.7030492
  56.1832809  48.8598871  38.0909133  55.9225178  50.3090715  38.4414053
  87.8681660  30.9068632  47.3024607  87.7268124  30.8218861  48.2453442
  87.8852367  31.8511963  47.1469784 102.7619553  38.2324982  18.3092427
 102.8529453  39.1826344  18.3813131 102.0536327  38.0131292  18.9145517
 113.7022764  52.7042913  15.8488762 113.5925197  53.3689928  16.5288472
 113.2477705  53.0637217  15.0869930  84.9121857  45.5977726   9.4676590
  85.2447605  46.4881611   9.3543446  84.0297127  45.6228209   9.0977252
  78.5530138  12.1479440  35.9053898  77.7332544  11.6777909  36.0576534
  78.9364195  12.2492111  36.7765832  94.0930080  53.0473661  30.5391502
  93.6881256  52.3725700  31.0840869  94.2302418  53.7848902  31.1336756
 110.5577374  11.2294698  44.2669249 110.9071064  12.0045364  44.7067499
 110.2951431  11.5431201  43.4015369  60.0008583 104.6271133  51.4113331
  60.9130621 104.8296547  51.6189098  59.9861526 104.5380497  50.4583979
   7.9441601 103.0529881  27.9836392   8.7590450 102.8934956  27.5074482
   7.6808906 103.9344978  27.7193189  45.6136942 105.4665661  50.0862360
  46.4819384 105.8016586  49.8624134  45.7819462 104.7711849  50.7221317
  87.6679420  77.0527983  55.9757423  88.0438614  77.4491787  56.7617416
  88.3602619  76.4833355  55.6401253  89.2523575  22.1004343   6.2050259
  90.0544262  22.0884657   5.6827384  88.5672188  22.3527694   5.5860436
  97.7073669  54.7349119  36.4784098  98.2630253  54.0171862  36.1745238
  97.2838497  55.0624180  35.6849313  80.4668999  58.0761194  33.8226652
  80.6849766  57.6411104  32.9983854  81.2109184  58.6538029  33.9927864
  91.5623093  50.4007483  22.9950261  91.6165924  50.0394154  22.1103096
  91.7191982  49.6515560  23.5697699  88.9021683  75.9153414  23.9418435
  89.0386486  76.6093397  23.2968831  89.7481537  75.8265352  24.3807602
  78.0078316  21.0772777  27.4840641  78.2024860  21.8890238  27.9524755
  77.0862198  21.1576748  27.2382879 106.7620468  36.6886377  39.3662763
 105.9372330  36.7135859  39.8513412 107.2649479  37.4266076  39.7108316
  87.7539444  58.9830923  20.3058767  88.0261230  58.9569712  21.2231922
  88.4612370  59.4484711  19.8593426  32.5363684  92.8526115  85.5383968
  33.0756760  93.2004166  84.8281765  33.1261563  92.2797680  86.0285282
  76.0189056  49.0492201  26.9489765  76.5363979  48.3398104  27.3299837
  75.1738453  48.6475229  26.7471051  74.3377829  29.5027590  29.5520997
  74.4035864  30.3314042  30.0267029  73.8163805  28.9397693  30.1242971
   7.6821655  20.5376315  47.8220129   8.4715939  20.7300162  48.3279991
   7.7954942  21.0258031  47.0064926  68.7561846  52.4810648  18.0018950
  68.2048035  52.3647022  18.7756312  69.3945360  53.1458044  18.2604647
  50.4250717  97.7681255  47.5046349  50.1687098  97.0871258  46.8827486
  51.3484430  97.9321480  47.3130322  92.0839882  13.5032356  50.2939177
  92.4795055  14.3748844  50.2987099  92.8263474  12.9037809  50.2178192
  94.1898346  31.5660644  47.2261381  94.7087288  32.2483492  47.6521254
  93.8602352  31.9790411  46.4279842  92.2105598  49.2035198  16.6056252
  91.7218399  48.3907843  16.4758503  91.6282082  49.8883057  16.2767410
  94.2268276  54.5966721  62.0341778  94.7716808  53.9135647  61.6433907
  93.3836842  54.5147371  61.5885019  80.7452869   3.5973310  30.5809283
  79.8271656   3.8461637  30.4743123  81.0167599   3.3048466  29.7108769
  57.6851892  22.1557021  52.1826792  56.7432928  22.0678830  52.3288107
  57.8965521  21.4612031  51.5587997  96.5211010   2.9439494   5.0160068
  97.1571541   3.2031578   4.3493080  95.9809113   2.2805917   4.5866135
  47.8166580  33.4349227  19.0361023  48.3893585  34.1857767  19.1925192
  48.3978748  32.6759887  19.0855074   2.9892480  65.5604029  24.5473146
   2.0967239  65.6383562  24.8842955   3.1085393  64.6221685  24.3999624
  96.9408417  61.7094707  19.0363646  96.3679218  62.4760771  19.0186059
  97.7124119  61.9983244  19.5236671  41.8216896  19.5800173  17.5248921
  41.6549778  18.9791918  16.7986369  41.8124676  20.4490542  17.1237397
  60.6302547   6.1999840  34.8342299  61.3508368   5.7646453  35.2897215
  59.8505735   5.7106251  35.0966406  69.4240427  41.4825869  31.0038924
  69.8112631  40.6363440  30.7799125  70.1683283  42.0830297  31.0455823
  63.0270195  15.3612101  68.7044144  62.4562359  16.0573375  69.0297556
  63.3984709  15.7142770  67.8959608  67.7636671  23.4828520  13.3281755
  68.1981373  22.9329419  13.9801455  68.0549288  23.1320500  12.4865484
  58.1735945  24.9803019  19.8382127  58.1873035  25.8708739  19.4876039
  59.0956402  24.7622156  19.9742103 100.2608490  17.2322702  26.3489389
 100.4685974  17.8555620  25.6528211 100.1179314  16.4028621  25.8929896
  94.1219425   6.6399205  26.3388944  95.0502968   6.6769052  26.1086154
  93.9050198   7.5338656  26.6035438  41.5416861  93.4411430  24.9898005
  42.1267939  93.4501553  25.7472968  41.8673849  92.7253628  24.4440866
  81.8637562  26.0382819  43.9548969  82.4680996  25.3171134  43.7790537
  82.4311066  26.7911434  44.1208839  61.9317770  16.1112654  36.6947055
  61.8680000  15.1575768  36.7461133  62.8460503  16.3018262  36.9045186
  90.8351994   3.9405572  28.2749176  90.3015900   3.2653853  28.6940122
  91.2848473   4.3747354  28.9998579 111.8096542  16.8411577  37.0105290
 112.4789047  17.0258749  36.3515806 111.0005474  16.7417574  36.5088296
 100.8488369  35.0056005  30.1455975 101.1965275  35.8971620  30.1670480
 100.4160881  34.8968434  30.9924316  69.0961647  35.8604836  34.6638012
  68.3317518  35.2879262  34.5998716  69.1298962  36.3101387  33.8194633
  92.0227337  42.4474859  27.7983022  92.7530384  42.5478172  27.1877098
  91.3394070  42.0157719  27.2855425  88.7812996  31.6208720  44.1300249
  88.3540821  32.4748635  44.1964769  88.0861092  31.0266209  43.8475227
  97.9101276  25.7662106  36.8987560  98.3637428  25.1037216  37.4198771
  98.6036968  26.3582039  36.6076708 105.8552837  17.6467121  23.6067271
 105.7285786  18.3187830  24.2764282 105.5201912  16.8441069  24.0064430
  56.4981890  12.4003839  59.8938942  56.6294146  13.3219242  59.6707869
  55.8885574  12.0777333  59.2302084  52.2341061  19.3047261   8.1945074
  53.1402254  19.0071833   8.1129342  51.7132521  18.5033309   8.1424743
  68.7313271  39.2749047  39.4437456  68.0710363  38.6005473  39.2841029
  68.2730913  39.9428010  39.9538112  58.9437485  43.6778975  37.9479957
  58.9899254  44.5226479  37.5002313  58.1726599  43.7470293  38.5109115
 101.2981987   1.1136309  13.2832527 100.4370499   1.0673954  12.8678942
 101.9178772   1.0752619  12.5547230  73.1858921  44.6330404  23.9864826
  73.4762621  44.7646666  24.8890305  73.0070543  43.6945915  23.9268661
  59.4218159  15.9202063  52.5138092  58.9733696  15.7393110  51.6877317
  59.3148518  15.1180744  53.0250549  13.5423183  16.6499734  37.4050474
  14.4761395  16.5034914  37.2542024  13.1148171  15.8837485  37.0224571
  92.1910000  31.3748550  33.3214307  92.3259163  32.2989202  33.5315037
  92.9499245  30.9301353  33.6989069  88.8676357  32.5762653  39.1306782
  89.3344593  33.3895659  38.9387107  88.2904148  32.4480224  38.3779502
  94.0046597  32.6102805   9.2487097  94.0660095  32.6602340  10.2026343
  93.0793381  32.7661443   9.0597248   3.0678290  13.0931282  23.1040287
   3.0214059  13.3466125  24.0258861   2.1886612  12.7752602  22.8984642
  78.7452030  55.8795691  29.3720031  78.1166315  55.4480553  28.7932754
  79.6002054  55.5807400  29.0623283  91.8804169   3.9195758  23.2787538
  91.9867325   4.2411157  24.1740417  92.5712967   3.2651305  23.1756806
  77.0710993  16.9555259  20.2117920  76.3951254  16.6065788  19.6308231
  76.9198942  17.9007030  20.2146387   3.8548857  34.0851665  13.7843835
   4.4522443  33.4390664  14.1611445   3.3329707  34.3902278  14.5265245
 100.4323101  91.4662647  79.9816704 101.3516998  91.2525272  80.1406384
 100.0401402  91.5008640  80.8541584  93.8404274  10.2577329  13.3223188
  94.1233253  10.0690508  14.2170787  93.9684868  11.2012780  13.2245719
  76.3167191  31.7521191  30.0034165  76.1073637  32.0738506  29.1265512
  76.8777275  32.4302602  30.3797483  75.0804090  15.5321002  43.9643812
  75.5574465  15.9680986  44.6704769  75.3520250  14.6160448  44.0218306
  67.5422192  36.5972042  41.4991951  67.6549435  35.8703136  42.1116924
  67.7874708  36.2336874  40.6483507  17.0600629  96.7361164  48.6913633
  17.4133909  96.4673138  49.5393848  16.1742520  96.3737488  48.6752272
  92.1022129  37.4794555  16.7349350  91.9681549  38.1660008  17.3883247
  91.3550758  36.8919134  16.8481219  89.9625015  29.7339797  33.6700344
  89.2542076  30.3404021  33.8863730  90.5999756  30.2691340  33.1973100
 104.2081642  23.0388951  27.3927784 104.3121529  22.3305440  26.7574382
 103.4160423  22.8101254  27.8790307  62.6409483   7.2515422  62.1455240
  62.1990824   6.4079440  62.2421217  63.4668636   7.1447414  62.6174212
  99.5307159  21.4644313  26.3243389 100.1000881  21.6272020  25.5723000
  98.6857224  21.8350577  26.0696673  70.2555370  17.1627176  44.0565109
  69.5610380  16.7264044  43.5630131  71.0308695  17.0824015  43.5009575
  60.6047297  35.5254817   9.8801583  60.9531879  35.1887798   9.0546632
  61.3094807  36.0679555  10.2341092  63.2039642 104.5308208  38.0175686
  63.5685110 103.7226677  38.3784413  63.8270092 105.2104282  38.2748175
  63.8270426  21.0663581  40.5676889  64.4314814  21.8080211  40.5963326
  64.0976810  20.5085135  41.2969351  51.4535189  32.7381182  39.7062612
  51.4337540  32.4523544  38.7929273  52.3402548  33.0757666  39.8324442
  99.9117565  11.2013865  25.8822560  98.9557076  11.1873412  25.8375621
 100.1082230  11.1714542  26.8185973  82.5989628  15.6062269  55.5889606
  83.2728958  15.7817221  56.2456560  82.7549648  14.7003949  55.3218222
  58.9904356  36.1601496  34.1687441  59.4905806  35.4409552  33.7829351
  59.2143297  36.1355591  35.0990653 111.0845757  58.0426741   6.3395286
 111.0593700  57.4377871   5.5981046 110.3990269  57.7279902   6.9287866
  10.5996382  23.0698681  64.1285038  10.8392239  23.1066823  63.2025051
  10.5832708  22.1352839  64.3346977  67.0422745  94.8819542  41.8196392
  67.9892492  94.9768066  41.7173147  66.6900253  95.7443714  41.5996552
 103.8037682  46.1636639  30.6389093 103.9307594  46.2353373  31.5849376
 103.2226086  45.4106903  30.5316329  79.3488169  11.0273361  14.8647809
  79.2175722  11.7167664  14.2138636  79.3991184  11.4926875  15.6997359
  85.2217674  25.5158448  20.6250286  85.9839630  25.7484531  21.1552882
  85.1098728  26.2562132  20.0287342  25.1163173  54.3676996  85.9047508
  25.2933979  53.4384155  85.7588196  24.9301720  54.7158766  85.0327682
  88.2868099  21.3285494  15.2466440  88.1538486  20.5141950  14.7614861
  87.9613113  22.0121312  14.6609783  89.2839527  24.7341847  35.4275680
  88.8310242  24.0353394  35.8994770  90.2130127  24.5675087  35.5866265
  67.4601984  28.7908554  51.6934538  67.5601721  29.3303752  50.9091377
  67.5363827  27.8909063  51.3764095  17.8611743  74.8579836  35.5775857
  17.6041031  75.7779408  35.5157852  18.8181639  74.8766804  35.5848312
  85.9332085  17.6004052   6.3436061  86.2951565  16.8202877   6.7638975
  85.1918983  17.2751570   5.8328199 113.4104252  55.0215912  31.7274070
 112.6087952  55.1375294  31.2173247 113.1062412  54.8948336  32.6260948
 101.8611145   5.8736414  65.9367609 102.2897339   5.0906724  65.5911064
 101.1137295   6.0139507  65.3554249  69.7721386  24.7712541  34.3432665
  70.1045895  25.1568484  33.5326958  69.0424347  24.2183805  34.0638161
 104.3348408  23.0449533  43.8614798 105.2052116  23.2220006  43.5046387
 103.7996578  23.7805152  43.5635471  94.9409771  30.6286883  59.4010019
  94.0132904  30.7002831  59.6257353  95.1445198  31.4527369  58.9585733
  21.4939404  47.7677250  91.7732143  20.9683728  48.5021162  92.0905209
  22.3482513  48.1519794  91.5763950  24.3834281  88.5890675  92.5310707
  25.0413823  89.1942978  92.1889973  24.8471165  87.7563953  92.6199055
  97.2591019  40.2216673  47.6025152  97.8037548  39.5217323  47.9626179
  96.7438698  40.5314875  48.3473539 107.9947281  73.5658360  89.5603085
 108.5457420  73.1992054  90.2518177 107.1609592  73.7522316  89.9919605
 101.2049103  37.0050859  56.1716557 102.0696640  37.4154210  56.1789322
 101.3611507  36.1230898  55.8341599  61.6482449  28.3286667  44.2297840
  62.2838831  28.1214905  44.9148226  60.8650780  27.8346968  44.4724178
  78.1373930   3.1641737  16.7699230  78.8763952   2.7217409  17.1874893
  78.2172918   4.0770042  17.0466697  96.5307522  32.2777867  11.8181765
  96.1426449  31.4311957  11.5970755  95.7866478  32.8229833  12.0737076
  64.4163704  37.7610612  35.8700562  64.8783541  38.3567858  35.2802134
  65.0474739  37.0639896  36.0490203  99.7714424  56.0495424  13.0473328
  99.6149635  55.1103210  12.9492974 100.1826286  56.3111258  12.2234833
   0.1591017  38.9324117  19.6563423   0.4303666  38.7300777  20.5517244
   0.3510259  39.8644352  19.5527649  33.1330657  90.7865620  87.4551582
  33.0119920  90.0381756  86.8708038  32.6191878  90.5688286  88.2328224
  83.4882832  33.2357502  35.6792498  84.1462898  33.3342743  36.3673973
  83.9963531  33.1494856  34.8726201  83.3620071  19.9224508  32.5946236
  84.2734051  19.6608686  32.4636340  83.0665684  19.3971550  33.3382750
  76.4718628  22.1284842  54.8567390  75.9270000  22.6268864  54.2476749
  77.2742033  22.6442099  54.9374056 102.4781227  21.3939571  32.2525215
 102.3293781  20.7436204  31.5661049 103.1702995  21.9558811  31.9041443
  73.2708693  19.2193162  49.1565180  72.6120138  19.6571958  48.6176300
  73.4872007  19.8576784  49.8361683  45.9598780  24.2306232  32.3162079
  46.9013119  24.0590954  32.3388672  45.5571747  23.3638120  32.3681664
 102.1051979  38.3255005  59.1351748 102.6406670  38.6843657  59.8427916
 101.9287395  39.0739417  58.5651493 101.1609364 104.6987057  35.1610637
 101.2325954 105.5344963  35.6221008 101.1358738 104.0424252  35.8574128
  91.3387966  67.3206663  21.0385633  91.7949295  66.5866947  20.6269121
  90.4149055  67.1716356  20.8374786  80.8876038  64.9342346  16.1018479
  80.4186821  64.1714954  15.7633710  81.3383102  65.2962780  15.3389394
 113.2103634  27.4627662  21.7816496 113.0779743  26.5153980  21.7470717
 113.8809681  27.5865340  22.4533725  78.9829397  32.8042769   4.6405071
  78.9622593  32.7552795   3.6847860  78.5470867  33.6309814   4.8474380
  97.0342255  28.2017684  45.4703951  96.8403053  28.6764598  44.6621275
  97.3018456  27.3304582  45.1781130 102.8237629  22.1084189  36.2854266
 102.5155640  21.6767430  37.0822334 103.6138248  22.5758767  36.5565443
  91.3225079  27.6392078  51.8060541  90.7312202  28.3354163  52.0922470
  91.6142368  27.2240257  52.6176882  96.5404224  12.0557785  21.0966110
  97.1959591  12.7201915  21.3088965  95.9771156  12.0195055  21.8696570
  52.1578646  65.2192354   3.4290975  52.0294523  64.3836641   3.8780510
  51.8744087  65.0540257   2.5298807  77.7202368  11.7110968  45.4696512
  77.3753214  10.8299947  45.3249979  78.6710072  11.6033041  45.4440928
  54.9397087  30.8858275  17.0479739  55.2073908  31.3476515  16.2534320
  54.9877453  31.5479469  17.7375567  70.1754189  36.9545937   3.4695327
  70.1433086  37.9028177   3.5963109  69.5112276  36.7794538   2.8028905
  97.5906944  42.8682613  26.7203403  98.4906483  43.1942749  26.7261243
  97.3753452  42.7430964  27.6445651 108.0544090   8.0798268  33.9904284
 108.9336872   8.4473336  34.0801549 107.9634476   7.4907631  34.7394037
   5.2634412  80.2451897  22.9939651   4.6510839  79.6224642  22.6022196
   4.7174251  80.9876823  23.2524133   9.2382431 102.9942989  88.1341457
   9.8021185 102.6463795  88.8249588   9.2839921 103.9441586  88.2433128
  86.7833996  37.4846315   7.4179810  86.6127872  38.2584810   7.9548985
  87.2719097  36.8964911   7.9938936  93.1673431  28.9531946  25.9876776
  92.9645443  29.6025801  26.6610312  92.9999733  28.1104374  26.4095545
  19.9876165 101.7952156  81.8812084  20.5206370 102.0398521  81.1247158
  19.1454482 101.5362644  81.5071297  98.2176304  39.4331193  24.2320514
  98.9673710  39.3886089  23.6386371  97.4758148  39.1394782  23.7031770
  80.8351707  58.3163929  28.5268283  80.2425289  58.8214970  27.9701591
  80.2859879  57.6245403  28.8955760  11.4610291  17.8822899  28.0767894
  11.6959822  18.7273324  28.4601068  12.2112286  17.3178029  28.2632995
 112.1442986  31.4268184  43.4771252 112.7545166  31.4443755  44.2143869
 112.4878979  32.0787382  42.8662443 111.8823433  66.5954494  32.5002098
 111.0324764  67.0346022  32.5335312 111.7183399  65.7279539  32.8700638
 110.6599712   4.5396569  41.4217424 110.4745197   5.3010547  41.9713879
 111.0142899   4.9088296  40.6127882  17.9666262  72.7107198  92.4952010
  18.0145484  72.2416288  93.3282010  17.8990775  72.0206720  91.8352748
 104.4027710  40.0313520  28.8309169 103.9014721  40.7336092  28.4164786
 104.5217037  39.3811846  28.1385469   7.6916319   5.1523256  29.0339422
   7.4305326   6.0245156  29.3294787   7.3817796   5.1031387  28.1296158
  63.0812788  44.9029684  16.9615233  63.7449551  44.3044424  16.6186976
  62.6152372  44.3907404  17.6223266  99.3657303  62.3384094  54.7119284
  98.7483883  62.4951458  53.9974022 100.2101517  62.2195053  54.2771339
  84.0463257  34.2675710   8.0691040  84.7406578  33.6843491   7.7625340
  83.7509727  33.8767743   8.8914633  90.9901619  53.8495779  26.3405252
  91.8042946  53.5812664  25.9145832  91.2379360  54.0105391  27.2509813
  99.6466160  54.2602015   5.2730900 100.5449390  54.5110893   5.0579226
  99.4126701  53.6132669   4.6075225 108.5413265  63.9857531  42.0195436
 107.9051495  63.8567448  41.3160753 109.1575718  64.6294641  41.6700935
 108.9171410  46.0863876  30.9850025 108.3969402  46.8863726  31.0601830
 108.5597229  45.6394958  30.2176881 101.5688133  19.8390770  23.0433059
 101.1315441  20.6889725  23.0953360 101.7224121  19.5925152  23.9553618
   2.5442308  82.9431152  88.4726143   1.8364310  83.5862350  88.4320831
   2.9670087  82.9979038  87.6155949  92.8002548  30.6947327  40.2957487
  91.9785309  30.5703592  40.7706404  93.1662464  29.8139048  40.2155924
 109.3853664  38.4599876  55.8912945 109.5704365  38.6440325  54.9703646
 108.4301186  38.4730268  55.9508848  99.3662453  54.0671062  30.2215862
  98.6320400  53.5221672  29.9383664  99.3410969  54.0248775  31.1775231
 100.2810287   2.9963884  27.7093148  99.6977043   2.2384444  27.7477741
  99.7813892   3.7040591  28.1164932  60.8156157   2.3412956  83.0923653
  60.1881409   3.0071899  82.8111362  61.5737629   2.8400150  83.3968735
 104.1366959  49.3266153  30.2997160 103.5797787  48.7155819  29.8173189
 104.5474434  49.8628664  29.6215153  98.4805679  40.2290487  14.2165220
  99.2086506  39.6466565  14.4331956  97.7116680  39.6589780  14.2098701
  85.6513309  46.3314819   3.1561160  85.3010654  46.9937420   2.5603336
  85.2639294  45.5095768   2.8550696  75.0800133   2.4799849  78.5857487
  75.0367641   1.5502587  78.3622074  75.5858946   2.5077787  79.3978691
 108.7300968  84.2078304  39.9839520 108.6638355  83.5569286  40.6826448
 108.9239502  83.6968040  39.1981363  89.4776917  80.1027489   7.9345280
  89.6982765  79.2168045   8.2220572  90.1836586  80.6493092   8.2796741
 101.9614315 101.5821934  75.1469135 102.8975964 101.7197037  75.0022697
 101.7064953 102.2824860  75.7476091  69.7377443  31.3864088  53.1512165
  70.0539541  30.4845285  53.2046747  68.7903690  31.3153839  53.2681131
   1.8079948  53.5744953  22.1448183   1.7188022  54.3448687  22.7058911
   1.2578599  52.9105234  22.5604153 110.5616570  35.7067513  10.4746282
 110.1398277  34.8658729  10.6512964 110.2283192  35.9661531   9.6156609
  81.6447639  82.9800224  13.7792206  80.9884262  83.5844803  13.4326875
  82.0540237  82.5995731  13.0020475  19.3748629  49.9819994  19.6274543
  19.4793320  50.5687904  20.3764510  19.0801227  49.1555309  20.0099587
  92.2767448  65.6165361  29.9760485  92.7351665  66.4536858  30.0485873
  92.5584888  65.2614498  29.1329813  13.0982399  39.6426916  66.8367815
  13.0537581  40.1910496  67.6200819  14.0333712  39.5767689  66.6433525
   4.3781021  26.6452813  16.0612309   4.1539687  27.5713134  16.1532080
   3.7160105  26.1861300  16.5779972 109.5483780  39.8792696  39.6912313
 109.3557358  39.3427825  40.4601908 109.8217583  39.2507410  39.0230656
   0.0091867  51.2192249   9.7582871   0.2148264  50.8163738  10.6018841
   0.8290129  51.6291189   9.4824153 105.0863838  37.6010895  45.0891733
 104.6174717  36.9011855  45.5435848 105.4602814  37.1767616  44.3169165
  92.2968197  11.2526488  29.9041224  91.6266918  10.6311142  29.6197724
  92.7722645  10.7924521  30.5957842 100.0526619  46.8188095   7.5913048
  99.9842072  46.2835169   8.3818799  99.7664261  46.2400532   6.8846595
  84.5490360  62.4632883  26.2070894  85.0091076  62.2121620  25.4061532
  84.2720890  63.3661842  26.0511565   0.7443422  72.6183128  33.6886883
  -0.2029891  72.4817419  33.6766672   0.9604026  72.7166748  34.6159840
 102.3239422  41.1224699  36.9781113 103.1795406  40.6942892  36.9492269
 101.7466640  40.5374765  36.4874244   1.7132568  16.8307567   8.8873929
   2.3952943  17.1676457   8.3063912   1.4964761  15.9702504   8.5285521
 110.8897114  81.3946724   7.2708708 111.4609337  81.9937420   6.7901987
 111.4669895  80.6826019   7.5464112  64.6504879  33.4666610  28.4482861
  65.5820179  33.6826181  28.4053254  64.2551756  34.2030501  28.9148569
  90.9488392  61.8417120   6.7025316  91.5517902  61.6877222   5.9752262
  91.2992477  62.6150846   7.1445018 100.4946041  35.0563359  15.9154773
 100.3548145  34.2804027  15.3726912 101.4398289  35.2038407  15.8835614
 100.6756973  43.6901760   3.7907645 100.4286671  44.5899153   3.5770473
 101.3455200  43.4658384   3.1448233   3.1244978  71.2395287  27.9200363
   3.0039448  72.0581770  28.4011936   4.0665436  71.1943102  27.7565217
 105.8020401  21.5172148  58.6495018 106.1829090  22.2166848  59.1804600
 105.8668327  21.8371987  57.7497005  39.8565817  79.7873735  85.7079029
  40.1633978  80.4585552  86.3175011  40.0136566  80.1614189  84.8409271
  86.1400509  74.3793821  33.0526996  85.2761364  74.3595219  33.4643912
  86.5095234  75.2235079  33.3118725 108.9568901  43.8462162  41.1872864
 108.8597298  44.3506479  41.9949627 108.9000893  44.4986105  40.4891491
  99.6175671   5.2636635  37.0035672 100.1439095   5.0063938  36.2465906
  99.8826218   4.6586573  37.6963472 100.9686375  71.2802601  41.4321232
 101.5439415  71.4181614  42.1846151 100.1473427  70.9687090  41.8124485
  62.9347229  10.5333817  29.3413043  63.6573124  10.9876168  28.9079809
  62.6829100  11.1141729  30.0592899  88.9509296  29.2446899  25.1116133
  88.3394432  28.5082817  25.1077652  89.3074608  29.2646050  24.2235112
  80.0341511  41.6051340   3.3092159  79.1011477  41.6736412   3.5117906
  80.4227924  41.2236786   4.0964168   0.7441064  44.9031591   6.9454694
   0.5132328  44.1970634   7.5490934   1.4064798  45.4114532   7.4135846
  16.0385823  31.3919258  32.4057603  16.4925539  32.1592569  32.0574164
  15.2293098  31.3410258  31.8971157  88.0239487  50.8076668  14.0992653
  87.8100109  51.1962080  14.9474990  87.1896076  50.7807922  13.6308670
  92.3344326  55.6164026  52.2337151  93.1164837  55.2173662  51.8524027
  92.1112823  55.0487041  52.9713821  91.1270237   1.3183978   8.0637687
  91.3489246   1.0478620   8.9547235  91.7598343   2.0063931   7.8577459
  95.8067608  22.1421242  41.6536140  96.1038780  21.7500854  40.8324814
  96.1502266  23.0352879  41.6306639  13.5220206  35.9804893  20.3342843
  13.2547379  35.0633454  20.3946090  14.4242811  35.9466124  20.0164628
  81.1098385  49.7399950  31.1197329  80.5105305  48.9936543  31.1254764
  81.5921783  49.6535349  30.2974749  80.4741287  31.8406820  32.0602465
  80.4182053  30.9012461  31.8854189  80.1862240  31.9328427  32.9684591
  12.8280485  65.8973026  42.1574068  12.1409965  66.3172483  41.6398764
  13.0129933  65.0811958  41.6926527  64.8281765  24.8125458  29.2361426
  64.9567366  25.7497144  29.0897775  65.4802704  24.3910384  28.6763787
  96.3990116  40.4898071  44.6700144  96.5387154  39.5769286  44.9217367
  95.7342911  40.8077002  45.2810240  11.7515671  14.4718659   5.2710885
  10.8032382  14.5620334   5.3647584  12.1093726  14.8660541   6.0665900
  94.4263744  53.7575197  65.5637980  93.8768387  54.1876698  66.2189436
  93.8090897  53.4390354  64.9051952  65.3447962   4.3700761  28.8206983
  64.9122858   4.9699917  29.4283748  64.6490860   3.7800181  28.5307813
  70.7064295  17.3679686   7.0877749  69.7648716  17.5344491   7.0432997
  70.8081865  16.4769590   6.7531407   4.4912562  53.1494522  24.9572492
   5.0789273  52.5315905  25.3921294   4.2295170  52.7042961  24.1512990
   2.0826948  74.3155766  22.8590775   2.6469380  73.5440493  22.9100919
   1.6084222  74.2113352  22.0341945   5.4143322  22.5244188  27.4396229
   4.5364326  22.2053885  27.2304726   5.9239167  21.7314768  27.6063442
  76.4995098  80.6437016  23.6509371  76.6096115  80.6975174  24.6002579
  76.0460472  79.8127365  23.5091400  96.5189934  44.0172482   6.0909182
  96.4785767  44.2564487   5.1649690  96.2922478  43.0874538   6.1082196
  85.9345150  74.7352839   4.9004048  86.5407944  74.0933561   4.5308381
  85.7914162  74.4396591   5.7994944  92.6007652  75.7868624  49.3884087
  93.4848499  75.9110212  49.7336864  92.7085018  75.1583052  48.6745882
   4.9320632  34.3065810  24.4961882   5.7951462  33.9241266  24.3379235
   4.3851966  33.9645815  23.7889361  11.5908122  68.1564569  35.1120019
  12.0763803  67.4165106  35.4766130  12.0044065  68.3200455  34.2644119
  24.6791601  70.8119440  88.1529713  24.1228580  70.1605272  88.5800743
  25.3908801  70.3022432  87.7658081  86.3131046  20.5354261  20.0533319
  86.3289356  20.8161664  19.1383636  85.4944324  20.8912230  20.3988957
  35.4342318   4.5122451  64.5067406  35.6268287   3.9976895  63.7229204
  36.0787249   5.2198273  64.4930887  97.2860622  42.7947855  29.6869779
  96.6428375  42.3323917  30.2242756  97.9971504  42.1648788  29.5694780
  97.8664589  41.5522861  20.5437350  98.2382584  41.3867855  19.6773565
  97.4354839  40.7309866  20.7802987  33.4610438 105.3572273  83.7183666
  33.1336689 105.4741764  82.8265285  33.8906121 104.5019245  83.7055874
   6.6825956  31.9359207  12.7456868   6.9476718  32.1667695  11.8553627
   6.5676796  30.9859228  12.7226543  90.7589626   6.9731861  34.7765970
  91.4196968   6.4422947  34.3318343  90.5490208   6.4795744  35.5693793
  97.0166683   0.9663215  28.5096574  96.4688492   1.6726077  28.1671882
  97.5318432   0.6762885  27.7568579   2.0953597  39.2140818  16.5102863
   2.1454901  39.4602895  17.4339199   2.8901553  38.7037826  16.3549614
 107.1889400  10.0206685  41.2126637 106.7678165  10.8435905  40.9642982
 107.1441174  10.0076842  42.1687269  92.3809052  29.7408938  57.0537043
  92.2802067  30.4307628  56.3978291  92.3493767  30.2012682  57.8923321
  98.6054516  48.7442255  27.9243231  98.7091541  48.2072544  27.1387386
  99.4985580  48.9883566  28.1671858   6.3816398  75.4620886  82.7446842
   6.0918230  74.6914482  83.2329082   5.5743295  75.9346485  82.5417900
  81.9207191  29.9034667  19.9068260  82.8608036  29.9109793  19.7268140
  81.5116310  30.0149941  19.0486634  74.0371990  74.1020155  31.4613366
  74.3702364  74.9185467  31.0890532  73.0853558  74.2017221  31.4443445
  32.4311757  80.7770634  84.3992233  33.2116365  81.2282562  84.0774441
  32.4275136  80.9470654  85.3411961  83.2974148  40.4085016   0.6436893
  82.9143429  39.9983931   1.4191230  83.7075901  39.6858883   0.1684898
  33.9027500  60.3144646  86.6600418  33.6430597  61.2324286  86.7383671
  33.3128786  59.9543524  85.9977722   5.9944576  16.8239892  10.7270229
   6.6168588  16.4714634  11.3630843   5.9405988  16.1524177  10.0470793
 107.0737553  61.0687637  18.2750440 107.0685196  60.1744318  17.9339087
 106.9865036  61.6217756  17.4986422 107.9718590  31.0101748  44.4822121
 108.6591339  30.5067039  44.0458632 108.4448242  31.6274643  45.0403261
  40.6334114  20.4767680  32.0848393  41.2694502  21.1447001  31.8288040
  39.8298836  20.9662080  32.2609758  90.3950310  73.0175591   6.1662227
  90.7805538  72.2345686   5.7731235  90.9764862  73.2301426   6.8962586
 111.5634060  40.1190662  25.7343173 110.6381702  40.0809050  25.4920125
 111.7974472  41.0425472  25.6413746   6.7956412  40.4089975  16.9617319
   7.1263558  40.6477880  17.8276646   6.2646019  41.1586952  16.6930532
  20.0679111  56.9032907  28.6225009  20.5205798  57.0950794  29.4438052
  19.4694197  57.6403761  28.5010982   3.5614672  33.5895824  56.3820457
   2.8185654  33.8153195  56.9418430   3.6435544  32.6394868  56.4645624
  94.0856361  19.4599152  35.9233570  94.8790741  19.8304927  35.5368876
  94.3300533  19.2603993  36.8270636  91.4351368  16.4124835  25.7895041
  91.4977741  17.1705246  25.2083993  92.3430443  16.1461675  25.9344840
  99.7248173  78.8821173   4.5522058  99.1598129  78.1516647   4.3003288
  99.1519928  79.6485090   4.5247898 106.6253090  43.3152914   7.9651827
 107.0827389  43.7026072   7.2188735 106.9235897  42.4059296   7.9832584
 108.1607151 107.4816990  55.1819038 107.2660542 107.2406292  55.4220963
 108.6286545 106.6480637  55.1336861   9.7042257  36.3744068  35.8194304
   9.3072450  37.0206070  35.2354217  10.1573598  35.7682943  35.2333164
  72.9869747  75.5524826  51.0137653  73.6582136  75.3929090  50.3502846
  72.5910234  74.6942616  51.1651325  13.2246327  72.9407740  31.7782521
  12.6299417  73.4207296  31.2018681  13.0024016  73.2446289  32.6583195
  99.0334511  52.6740932   7.6456338  98.6837196  53.3074713   8.2723337
  99.0904331  53.1585121   6.8220294 112.1058846  46.2492085  23.7289929
 111.1722565  46.3153553  23.5284686 112.1387005  46.1200619  24.6768713
 104.8571205  58.5410929  27.4369049 105.3059483  58.5442924  28.2823491
 104.4893742  57.6603413  27.3642993  66.8699551  68.4507465  18.7219036
  65.9960032  68.0949593  18.5611141  67.0890236  68.1573296  19.6062946
 112.7561855  39.0012717  35.9849286 113.1143475  38.4082890  35.3243804
 112.9167557  39.8768473  35.6330538 102.0728397  43.6671305  47.8429270
 101.8192387  43.5582590  46.9263792 101.4302254  43.1531572  48.3319187
  82.5053883  19.5400405  24.1750479  81.5559387  19.5631576  24.0556765
  82.7720642  20.4590654  24.1525006   5.7332259  46.3241100  45.2534103
   6.6075146  46.5965939  44.9748373   5.8385432  46.0867023  46.1747026
 106.0414696  76.5554857  28.3776927 106.7345810  76.4130640  27.7330685
 105.4153442  77.1274376  27.9337597   4.0883374  34.0774155  47.3926115
   4.4576412  33.4739923  48.0373812   3.1567129  34.1179943  47.6086235
   0.3111587  76.0295010  18.5802937   0.0571722  76.6264629  19.2841125
  -0.1910871  76.3264275  17.8214669 107.1247101  75.7402277  33.2246661
 106.5347862  75.6275845  32.4793267 107.3735046  76.6640759  33.1957221
  90.8286858  66.2043333  48.6471462  90.1909256  66.6551065  48.0937052
  90.3355885  65.4870701  49.0454149 100.8785629  43.5583925  37.6713276
 101.4571953  44.2807341  37.4271202 101.3244438  42.7749777  37.3493361
 113.2765770  86.9901848  11.7058229 113.4790611  86.1326408  12.0797920
 112.3274803  87.0735931  11.7979133   1.1051853  51.5436554  27.5872970
   0.5611165  51.1335325  26.9149709   0.7953186  51.1650276  28.4100103
   4.7858873  70.4201651  30.9917903   4.6990681  71.0992193  31.6608071
   3.8908574  70.1156569  30.8420372  98.6061573  32.2297525  16.5629816
  99.0288734  32.6582241  15.8186996  98.4842014  31.3234997  16.2800300
  95.4308414  95.6442070  49.3007135  95.9737396  95.0641346  49.8345661
  94.6303082  95.7610416  49.8123121  44.7419930 102.9790974  78.2507753
  45.1123810 102.7367210  79.0994835  44.3781090 103.8535500  78.3891821
  90.8294106  91.8623543  46.4948511  91.4937782  92.5246716  46.6850567
  90.8062935  91.3141441  47.2791767  73.0434132  79.5129919  37.6634192
  72.8727484  79.7075176  36.7418623  72.2124910  79.6915722  38.1037712
 108.3016682  38.9732695  26.1878300 108.0016613  39.8626781  26.3753915
 108.3074188  38.9189696  25.2321887   3.4566328  92.7585793  50.0380421
   3.9822480  92.0037365  49.7731352   2.7001256  92.3787212  50.4848480
  19.7671402  70.5757523  43.0645323  20.3982401  70.3331184  42.3869801
  19.1951585  69.8123169  43.1435156 105.5277729  50.6352234  42.4574375
 106.3984394  50.7361031  42.0727253 105.3903103  51.4420319  42.9538107
  19.7754109  95.0746632  25.7758737  20.3250957  94.5827007  25.1659155
  19.4353890  95.8037949  25.2572322  88.9486504  22.5742555  64.9833822
  88.2891464  23.2388783  65.1822996  88.4523296  21.8520904  64.5981932
   0.3538390  28.1345177   5.1537943   0.8114643  27.6440978   5.8366555
   0.7011212  29.0237355   5.2239454  79.0961218  67.6373959  31.0673165
  79.7741795  67.6788568  30.3929663  78.3779240  67.1568584  30.6555986
  91.8216038  42.5263643  21.8506074  91.6964531  42.0500708  22.6714087
  92.0299816  41.8472767  21.2090063  78.8591814  64.1783810  31.3947487
  79.3078423  64.5250845  32.1659350  79.4361067  63.4855127  31.0733151
  89.3720531  27.2899628  36.0461855  89.9323463  27.5269270  35.3071594
  89.2267418  26.3493252  35.9446263  28.8383126  65.7942867  40.3773022
  29.6993399  66.0983944  40.0902796  28.3586335  65.6318998  39.5650387
  22.0956445  91.9731426  45.1569271  22.5517201  91.3443279  45.7162333
  22.7654219  92.6159000  44.9235058  98.4514618  44.1067028  50.1733398
  97.7613449  44.6498489  49.7925949  98.7637806  43.5705280  49.4445038
 105.2763939  65.8260155  72.2477961 104.3615627  65.7329226  72.5136089
 105.7779694  65.5464745  73.0136395   3.4265622  70.2694130   6.3174069
   2.8076816  70.6959438   5.7247096   4.2113733  70.1330900   5.7866335
 100.6086826  55.0927210  34.6787763 100.6220436  56.0416603  34.8035240
 101.0898781  54.7456074  35.4299068  72.0797539  18.6979163  89.1145992
  71.7949152  19.3947530  89.7057915  71.8511820  19.0163565  88.2413387
  24.5486307  77.4746799  62.8023624  24.8625398  76.5861988  62.6341343
  25.1469421  77.8185034  63.4657145  95.8306026  87.4845886  25.1440310
  95.7818794  87.4112606  24.1908884  96.6557121  87.9415321  25.3072286
  93.6601734  48.8371515  39.3193555  92.9983997  48.6429262  39.9831080
  94.0922737  47.9981661  39.1592693  11.5391839  66.7838335  18.3691430
  11.5586293  67.7394629  18.3178878  11.7936170  66.4918041  17.4938059
 106.8248558  57.7870131  72.4424791 107.2358227  57.7751637  71.5780687
 107.0043659  56.9194698  72.8049374 103.1588936  97.1535110  14.3071890
 104.0654278  97.1549797  13.9999247 103.1846714  96.6601467  15.1270413
   2.6464421  80.9720802  56.6243553   3.0898950  81.2421322  57.4285030
   2.3644356  80.0737095  56.7964697  94.5419025  54.3672228  51.1419249
  94.9441338  53.8841438  50.4200697  95.0586796  54.1241932  51.9101143
   1.3988456  61.3534689  54.3728018   2.0467718  60.6512833  54.3148232
   0.5647938  60.9265184  54.1770840   2.1452393  54.7540140  30.9463191
   2.8291059  54.6534157  31.6084671   1.3266547  54.6297121  31.4266324
  32.2347021  70.7389498  91.7176247  32.4458146  69.8471212  91.4413929
  32.0398593  71.2022209  90.9029770  90.4998684   2.6878583  25.8067632
  91.2338543   3.2669544  25.6014562  90.3706646   2.7900153  26.7496848
  92.6507473  36.6924095  31.8719649  93.4268856  37.2400331  31.9901085
  91.9388103  37.3147893  31.7236042 100.0431442  56.8455076  43.5933828
 100.8237648  56.4886951  43.1696558 100.0928402  57.7877808  43.4325266
 107.5093651  55.7418108  21.4352226 106.7206383  56.2643433  21.5805078
 107.4711037  55.0590754  22.1050262  96.5505219  77.6748323  45.7799101
  96.1571312  76.9009113  46.1830568  97.4191570  77.3845673  45.5016232
  83.7607098  65.0866652  26.3834119  83.8532829  65.4721832  25.5121851
  84.1723919  65.7205057  26.9707799 108.7264252  35.4895067  57.3564672
 108.9181805  36.1466002  56.6873693 108.5484886  34.6892977  56.8622637
 100.0135040  60.8798361  11.3830519  99.2322445  60.4849100  10.9958947
  99.8618221  60.8349514  12.3270905 111.5512466 105.1359749  92.0471859
 112.0873547 105.8012104  91.6155720 112.1215248 104.7706127  92.7235985
 102.9659653  60.5417109  37.6068306 103.7175751  61.1252737  37.5030470
 103.0543804  59.9083042  36.8946409   1.0958392  36.8899703  18.2936597
   0.3539954  36.3652873  17.9926491   0.6981249  37.6008391  18.7963736
  69.2810822  36.0697484  18.9897823  69.0816307  35.7496452  18.1100190
  68.4845877  35.8998966  19.4927490 101.0777283  55.0504684   0.6967987
 100.6988049  55.4547405   1.4773224 101.6985130  55.7005262   0.3677449
  82.4955559  49.2468071  28.8704729  81.8472576  48.6117792  28.5660386
  83.1538486  49.2687464  28.1759310  16.7695630  55.6772852  54.1108990
  16.4123034  56.5052223  54.4320154  17.3432863  55.3748941  54.8149061
  34.5165730 106.1274052  86.1938286  34.4752312 107.0570850  86.4178944
  34.1627502 106.0791016  85.3057384  98.0876732  50.5667400  25.6580186
  98.1471157  50.1231289  26.5041327  98.9956379  50.7599735  25.4245806
 108.4328270  68.1950235  50.8165693 108.8389492  67.3513365  51.0152817
 109.1130161  68.8399124  51.0107374  90.5168533   2.6749855  81.7673779
  91.3659191   3.1169221  81.7641640  90.6213474   1.9600189  82.3951817
  63.1383896  86.5402603  49.6957159  64.0154362  86.7605209  49.3818569
  63.2219315  86.5253162  50.6491470  99.9359512  33.0659723  14.2613506
  99.4366169  33.5939026  13.6383033 100.5384636  32.5591493  13.7169862
  89.1591549  36.0746384  34.7034311  89.2448902  36.6345406  35.4750466
  88.4899235  35.4344106  34.9452424  86.4441013  47.5878716  21.4920640
  85.9046650  47.4935818  20.7069802  87.2380543  48.0262041  21.1859107
  12.7318311  37.9732704  40.0000334  13.0522597  37.0728755  40.0534058
  12.9718077  38.3631206  40.8406639   6.7383641  35.0278425  47.6437473
   5.8519429  34.7326565  47.4355268   7.2841078  34.2507696  47.5231171
 105.7563972  44.1038275  31.3818741 105.5848026  43.8909960  30.4645467
 104.8913956  44.2768383  31.7534614  14.8346150  26.5004396  22.6130223
  14.9902105  26.7033672  23.5354328  15.4203367  25.7665420  22.4271297
 108.3450317  42.1846056  22.3990965 107.4808788  42.5732517  22.5348115
 108.3734703  41.9846678  21.4634418   8.5564357  67.9086828  26.4397311
   8.2357812  67.8185797  27.3371148   7.8312111  68.3159494  25.9660077
   3.0330601  76.4295149  58.5978270   3.3908585  75.5432320  58.6499453
   2.1054527  76.3020182  58.3990288 109.1002464  41.0516834  75.6998539
 108.3409882  40.8161449  76.2330437 109.6065903  41.6460991  76.2534952
 109.9574280  58.8723278  40.0672293 110.0079441  59.1817760  40.9716177
 110.8690071  58.7336826  39.8102546 112.1773529  35.2102995  34.6464491
 112.8035927  35.8418083  34.2925501 112.7212143  34.5098972  35.0068426
  91.4012909  85.8264923  56.3784742  91.3496971  84.8782158  56.4982510
  92.2785759  85.9759998  56.0259819   6.4525515  67.1571684  37.8307414
   7.1705997  67.7850866  37.9104996   6.0318005  67.1639967  38.6904812
  17.4958563  61.3264608  16.9450223  17.4596965  61.3658237  15.9893155
  17.8032541  62.1936703  17.2089982   6.4789987  49.2712069  43.9275694
   6.0536873  49.8128319  43.2627487   5.7590431  48.9460373  44.4680882
 107.9257774  24.5391536  65.6047916 107.0066929  24.2759132  65.6517649
 108.0213547  24.9206686  64.7321272 109.1489124  80.0301647  48.6586094
 108.5960007  80.8095169  48.6026812 109.0306854  79.7164631  49.5551825
 101.4867115  32.1241140  12.3094618 101.6591263  31.1831427  12.3423362
 101.3506603  32.3103714  11.3804674 101.6253376  37.4958658  64.5619917
 102.3874664  37.2048903  65.0627089 101.7644691  38.4347391  64.4379473
  46.0156822  89.4807816  90.4294395  45.9974289  88.9255333  89.6499538
  46.1804342  90.3614044  90.0924015 113.4740734  64.4109821  18.4509969
 112.9441452  65.2078295  18.4300864 113.8051128  64.3199730  17.5574827
 112.2999573  62.2804117  55.6633091 112.4936867  61.8065357  54.8545218
 112.8096867  61.8268299  56.3346291   3.8576114  37.8383231  48.0633783
   4.7970611  37.9564977  48.2037449   3.4599027  38.6302686  48.4251547
  22.0872784 100.3188610  16.3122904  21.2274957 100.5880833  15.9889817
  21.9131970  99.9525738  17.1793306 102.1497154  21.4353514  28.0553293
 101.3958168  21.9912887  28.2523012 102.1564007  20.7836437  28.7563753
   7.1674395  60.8790159  63.9644718   8.0129951  60.4310989  63.9897680
   6.5269333  60.1921844  64.1495371  94.7215748  73.1684160  29.9504852
  94.0107918  73.7155056  29.6162462  94.7730446  72.4389172  29.3328977
 105.4453182  70.5893850  17.5205278 105.9808731  70.2419567  18.2337701
 104.5861816  70.1871443  17.6482594 111.1074162  76.5847206  34.7884679
 111.2770367  76.4720917  35.7237625 110.7063103  75.7592058  34.5166755
  54.5137453  25.3854632  90.1491261  54.9195814  25.7728481  89.3735886
  55.1285791  25.5706739  90.8589935  53.1693459  16.8791187  89.0119362
  53.0637264  17.6914752  88.5168076  53.1011391  16.1871064  88.3541393
 104.4738102  55.9497213  45.6104946 104.0981293  56.7732382  45.2991867
 103.9218140  55.6995964  46.3514185  87.4299622  37.6582861  16.9934511
  87.8539562  37.1956539  16.2706566  87.5044727  38.5840392  16.7618120
   5.8976662  71.8672371  66.9133759   5.1196587  72.4154758  66.8115377
   5.9154195  71.3274527  66.1230898 105.5921078  56.6261292  18.3091414
 105.0360203  57.3090887  18.6840582 105.0663471  55.8286142  18.3705807
  82.0956135  65.0504589  40.8980322  82.7741623  65.2972746  40.2696323
  81.2756443  65.1388264  40.4121637  91.7089939  46.1816835  16.0871816
  92.5305748  46.3217783  16.5579367  91.5926933  45.2315760  16.0859013
  96.0786343  42.6595020  15.7711482  95.4981136  43.3428907  15.4361713
  96.0775471  41.9885015  15.0885177  14.9524033  70.3911877  11.6797197
  14.0970385  70.8164692  11.6187537  14.8298764  69.5442104  11.2509429
  12.7390492  65.0590038  33.5965085  12.4918044  65.4364729  32.7523398
  11.9328260  64.6628141  33.9270663  93.3940315  65.7350540  38.3040047
  93.2087231  65.5502224  39.2247272  92.6879883  65.3004169  37.8256512
 107.6566792  68.7099075  61.2886000 107.1678638  68.6983967  60.4656982
 108.0201435  69.5939827  61.3389301  87.0036030  30.6503510  29.0502095
  87.3464775  31.5226626  28.8559461  87.7340412  30.0595617  28.8667727
   3.2287586  44.4835949  51.1458635   2.6002282  45.2010775  51.2258577
   2.7281618  43.7001419  51.3735390  29.6140337  49.0865231  50.2699852
  29.0767860  48.7778139  50.9995699  29.0459180  49.6919107  49.7935629
  95.9426212  58.1389809  61.1541224  95.7164669  58.9551353  60.7080555
  96.2900448  57.5761700  60.4621840 101.2141514  32.5469851  34.8583961
 101.4768791  31.7830968  34.3448997 102.0363331  32.9044938  35.1937008
  16.4342248  65.6215668  83.0702019  16.6131365  65.1664162  83.8930321
  15.5574274  65.3296280  82.8207397 101.3930321  52.0630503  45.3350687
 101.8318748  51.2442064  45.5656052 100.7269192  51.8064976  44.6973276
   1.0265420  85.2384853  25.6401515   0.4500442  84.8927307  24.9587297
   1.7592764  84.6232605  25.6688571 109.1779232  69.5053673  29.6061897
 109.8400402  70.1213598  29.9198389 108.7185669  69.9797678  28.9132452
  21.7275381  60.1202250  13.8975239  20.9707975  59.8824406  14.4332814
  21.4659691  60.9302092  13.4596407  -0.0180118  69.9979305  25.0853920
   0.9151450  70.1513290  24.9373460  -0.1407454  70.1537561  26.0218143
 108.1570148  55.7151127  37.3973536 107.3271275  56.1909294  37.4307275
 108.4859753  55.8691597  36.5117550  89.3414211  67.5456762  37.2692800
  90.1584435  67.5754213  37.7671027  89.4787884  68.1582594  36.5467119
  16.3178468  56.9885921  15.6858683  15.9175467  56.2062788  16.0653102
  17.2568321  56.8709660  15.8297455 112.9869461  71.0889339  16.4555538
 112.9125881  71.7812204  15.7987082 112.9125118  70.2758169  15.9560239
  36.9851756  92.3897648  92.8978920  37.7319145  92.1663189  93.4534836
  37.3661733  92.8835201  92.1717453   0.3633710  10.4641342   7.1582174
  -0.3076868  10.3691852   6.4822751   1.1811697  10.5656064   6.6712469
 112.5004482  47.5456381  36.3679266 112.0284557  47.2244501  35.5996251
 113.4221268  47.5199080  36.1108661 100.5088329  60.3619480  33.5175705
 100.1311684  61.2202120  33.7098718 101.1924267  60.5403376  32.8717279
 112.7604103  30.9112954  52.8946877 113.3447266  30.9617996  53.6511660
 113.1253242  31.5361094  52.2680473  80.7133198  18.4236193   2.6315218
  80.2068043  17.7622795   3.1030110  81.4753246  17.9494309   2.2987559
 107.1168900  25.5338192   6.8306100 107.6106358  25.6839323   6.0244358
 107.1883488  26.3579464   7.3122120 107.7800655  48.8068342  53.8085461
 108.4831333  49.4184113  53.5896969 107.4827957  49.0838337  54.6752262
  77.8584576  60.9783983  46.3534927  77.7741432  61.8416357  45.9486008
  78.8016796  60.8547068  46.4596081   3.4665120  55.6271505  28.8230348
   2.8553283  55.5925655  29.5588946   3.2953370  54.8237991  28.3315492
 105.1273632   9.1339493  86.5845299 105.1605606   9.4675761  85.6879711
 104.4123363   9.6204126  86.9947910   7.0807278  99.5512009  25.6736231
   7.4501985  99.6637344  24.7978044   7.8336382  99.6151066  26.2612224
  20.7293153  45.1401997  27.0140028  19.9607623  45.7051802  26.9342589
  20.9861755  45.2135658  27.9331708  13.7394154  58.4468889   6.5066665
  13.5046637  58.3144951   5.5881917  12.9016232  58.5722494   6.9523370
  99.8215485  53.5840225  48.9805746  99.1817570  53.9328384  48.3599138
 100.6210327  54.0801096  48.8046312  69.4267178   4.4460991  90.2585220
  70.1029730   5.0941187  90.0610733  68.6823368   4.9630052  90.5666351
   3.9294752  89.2350960  25.6136584   2.9894611  89.4156551  25.6150746
   4.0540466  88.6083317  26.3263202  86.5827370  28.7486291  41.4156628
  87.4276066  28.3148313  41.5349674  85.9550858  28.0310631  41.3296795
 108.3831215  52.7214813  16.3959324 107.9567528  53.5421801  16.6427219
 108.2577610  52.1493483  17.1530199 108.5991478  50.7320929  38.1802011
 109.3039703  51.3635778  38.3240318 108.9314651  50.1546860  37.4928856
  79.7276735  70.5064821  61.1676836  79.0925169  70.1941538  60.5232811
  79.2320299  70.5629635  61.9846153   4.8482338 102.7168465  59.2017508
   4.8230281 101.8493843  58.7978983   5.7802957 102.9267120  59.2604828
 103.0810452  80.2308559  18.3029747 102.6002884  79.4063759  18.2298744
 103.9560890  79.9729824  18.5928416  13.9658105 101.8279171  41.9531441
  13.0409408 101.5945625  41.8731928  14.3467653 101.5901375  41.1078215
 110.3469944  41.8979979  51.4141273 109.8545265  41.7582846  50.6053066
 109.7176552  41.7164469  52.1121216  37.8053951   7.5790673  33.9113045
  37.5964642   8.4918296  33.7126970  38.2096457   7.6091063  34.7784305
  10.9155858  85.8189392  27.0834589  10.5676365  86.2471581  27.8656316
  11.3791072  85.0507736  27.4170947 105.3291225  41.7156696  41.2821865
 104.5250130  41.7094421  40.7629585 106.0053253  42.0120478  40.6729698
 101.8693733  58.1237507  46.0913467 101.1974525  58.7882328  45.9389830
 102.2198963  57.9336500  45.2211618 107.4327469  58.1834507  42.3362780
 107.7010536  57.3661423  42.7560902 107.7275562  58.0951786  41.4299011
   6.1700040  25.1811290  53.8585424   5.3067571  24.8210883  53.6550570
   6.4390773  25.6267500  53.0552673  10.1210260  74.7844887   9.0133655
  10.3698099  74.4754744   8.1422454  10.9155130  75.1912451   9.3591541
  97.8287792  67.5193071  48.0434322  97.9043770  67.7460194  48.9703178
  97.0545673  67.9952002  47.7428341 101.9669151  74.7582531  50.0024986
 101.4536095  75.3736401  49.4790125 102.8522396  75.1221704  50.0001478
  17.2168887  72.6593542  44.2225218  17.5054955  73.4637547  43.7913895
  18.0278683  72.2255230  44.4877291  28.8082337  60.7522392  33.0173779
  28.7684417  59.9321938  32.5252700  29.0965962  60.4927015  33.8924313
 111.8345833  79.2077971  36.9775105 112.6942539  79.5794535  37.1751809
 111.8739128  78.3160782  37.3232245  28.8491488  32.1441531  15.0312114
  29.3896079  31.3945127  15.2805567  29.1099524  32.8390527  15.6356370
  36.6704297  93.6916351  88.1506634  36.0398126  94.4105625  88.1918716
  36.7168117  93.3619881  89.0481186  82.4360561  62.0732832  44.5522451
  82.3827744  61.5824699  43.7321854  81.6481304  62.6167727  44.5577240
   5.5055410  42.3167229  13.1675911   4.8054785  41.7523623  13.4956741
   6.3105005  41.8348503  13.3575118  85.4087257  42.7099276  18.5835397
  85.5748272  42.1610832  19.3499684  84.4555283  42.7176476  18.4965146
  93.2848263  42.1016216  19.1796994  93.0510521  42.4058580  18.3027625
  93.4460449  41.1641550  19.0729189  33.5788321  38.1514144  34.2874861
  32.7254438  38.5545516  34.1279888  34.1990876  38.7106848  33.8197994
   1.3009381  30.0871158  39.1096067   1.1066236  30.3374314  40.0128317
   2.2552456  30.0189137  39.0799880  96.9477463  68.0632591  65.0211811
  96.7784691  67.7847195  65.9211826  97.7783871  68.5365057  65.0691414
  26.3481736  52.1122885   5.1589793  25.5700755  52.4482727   5.6038511
  26.9859982  52.8232050   5.2223110 109.2653179  53.0993509  43.8108730
 110.1552677  53.2128048  44.1445732 109.3838501  52.7806044  42.9161215
  20.6002903  57.0877552  55.9326124  20.7767987  57.9807091  56.2287617
  20.0858665  57.1979046  55.1329470 112.5806904   0.6895211  20.1594305
 111.9108486   0.2334153  20.6688523 113.3555126   0.6819306  20.7214117
  87.4786949  83.5899734  32.1599627  86.8820953  84.2997456  32.3977017
  87.2464561  83.3742809  31.2567616  99.2677689  36.8261528  50.4931116
  98.3108616  36.8075323  50.5082226  99.5156765  36.0245538  50.0324488
   0.7210603  69.8631048  32.1375418   0.0616094  70.5365038  31.9705272
   0.6983653  69.3072414  31.3586140  78.9469004  77.9255724  56.3100815
  79.2559814  77.3879337  55.5809355  79.7466564  78.2336521  56.7363501
  18.0650389 102.6083946  41.2515640  18.8734245 102.9467487  40.8665180
  17.8116572 103.2693958  41.8958521 102.1210575  56.4661789  11.4510071
 102.2668743  57.0416975  10.7001781 102.4141502  55.6050014  11.1531699
  98.2518578  92.3868084  21.4165425  97.7316666  92.9843140  20.8792996
  99.1526508  92.6931000  21.3117337 111.1413193  66.5823412  26.1206174
 110.6706810  65.8871651  25.6607628 111.2218857  66.2630463  27.0193887
 112.3007965  59.8032379  16.3334966 113.1761074  60.1862144  16.3918126
 111.7875862  60.2780390  16.9872594  24.7101378  74.2652369  89.0134430
  24.9291039  75.0551176  89.5077896  24.8835802  73.5464668  89.6213245
  97.1685410  48.3013868  42.0012712  97.2792435  48.6371231  41.1117458
  96.4725399  47.6485777  41.9259930  81.3753796  76.2090969  19.8121595
  80.8657074  75.9355545  20.5748105  81.9387341  76.9103050  20.1395345
 106.7346859  41.6995049  33.5339069 107.2681427  40.9056902  33.5728264
 107.3508072  42.3904181  33.2904530   4.7472230  55.3784847  40.7116270
   5.1552707  56.0857582  40.2121353   3.8632146  55.6953049  40.8970594
  82.8938007  25.5403090  53.5309649  82.3626232  25.2197003  54.2598629
  83.4214211  24.7858167  53.2690668  50.7150984 104.9081898  88.8315964
  50.4869223 104.2691135  88.1565094  49.8768806 105.2880287  89.0949345
   0.4564361  64.6192694  21.1336660   1.2433248  64.0830469  21.2311506
   0.3008882  64.6469259  20.1895952 109.3284416  35.3632426  53.7653399
 109.7157955  34.6721601  53.2281351 110.0788498  35.8219528  54.1431046
  30.0681210  65.7886505  48.1862736  30.3788400  65.0176668  47.7116537
  29.1340208  65.8350229  47.9824638 104.3376732  53.5329866  28.8457680
 104.8617554  54.0091372  28.2016778 104.8437595  53.5907221  29.6561861
   9.5255482  76.4403439  42.4370146  10.3949833  76.8297625  42.5301170
   9.6765733  75.4977226  42.5069046  89.7402954  16.9639063  93.1906033
  89.8793888  17.8090620  92.7632904  89.4519043  16.3838196  92.4859333
  73.0131626  49.8528528  88.5568428  72.3037624  49.2717218  88.2824898
  73.1833458  50.4011965  87.7909565 105.8647823  64.0369272  32.6280451
 105.6905079  63.4215975  33.3402443 106.8189240  64.0526867  32.5532317
  30.3056097  96.8888664  42.9029226  29.7149944  97.1778488  42.2072983
  30.6999350  96.0852623  42.5638628 102.2786045  67.8496218  31.7004132
 101.7084885  68.6057234  31.5606952 101.8434811  67.1329737  31.2385464
  24.9924612  80.0897121  70.0195360  25.3142166  79.8936319  70.8994532
  24.2459512  79.5024061  69.9010849   2.2863525  75.0643158   8.8303411
   2.9372513  75.7580280   8.9367497   2.7874181  74.2521906   8.9053166
  96.1198807  72.0496798  41.2830687  95.7901192  71.1635113  41.4320421
  96.3380051  72.3741055  42.1568012  90.9611320  82.0449924  26.5015554
  90.7028294  82.8050900  27.0228696  91.8405724  82.2568417  26.1886311
   4.6233335  80.0791264   6.4755797   4.7534269  79.2305326   6.8988925
   4.7732809  79.9084377   5.5457342  84.9865055  67.1615314  68.4965658
  85.4595089  66.6270065  69.1343641  85.6680584  67.6722956  68.0597210
 113.2548428  73.6929417  37.0957947 114.1501427  73.3817911  36.9621897
 112.7810478  73.4008312  36.3170648  86.1471653  89.8943806  18.1400013
  85.8877945  90.4393387  18.8829517  86.9246292  89.4270706  18.4456193
  50.9818792  37.2717857  88.9180851  50.5168533  38.0928659  88.7574196
  50.9513807  36.8112135  88.0795288  92.5154495  42.4226809  58.7864494
  93.2978344  42.2305727  59.3033648  91.8117237  41.9521046  59.2331743
   6.0267699  87.7442265  51.2889481   6.3255256  87.3390579  52.1030855
   6.7051673  87.5261116  50.6498575  28.3017492  54.0788412   4.3838802
  29.0748429  54.3340063   3.8804394  27.7067399  53.7030172   3.7350756
  73.7544966  76.9387531  90.3582382  73.7446547  77.5230074  89.6000957
  73.9815807  76.0817957  89.9972725  96.4848804  43.1113672  43.0920696
  95.6954670  42.5826788  42.9757214  96.4388847  43.4141016  43.9989710
 104.4904804  93.0999279  22.3417449 104.6785355  94.0225792  22.5137734
 105.2273178  92.8005695  21.8091202  14.4801497  82.7680683  40.1822853
  14.7462487  82.1378613  39.5127583  15.2872837  83.2283974  40.4122066
  71.2450647  87.7502918  29.1527176  70.5297709  87.7709007  28.5169816
  71.5214539  88.6632824  29.2319703  91.3974476  84.9588394  34.8374581
  90.9242249  85.7322884  34.5307493  90.7510853  84.2536354  34.8038411
  23.9872837  68.2997561  12.8430462  24.8815656  68.5998678  13.0056059
  23.8327050  68.4968710  11.9192040 102.4100971 107.0145988   1.1291295
 102.2201633 107.0294380   0.1910800 101.5536594 106.9173527   1.5454020
 112.3897171  93.7002563   6.8891066 112.1781254  93.2599354   6.0659575
 112.4422932  94.6276569   6.6580206 102.5861168  10.5142975  43.1547737
 102.4839211  10.7744622  42.2392988 101.8801308   9.8856992  43.3053780
  24.5154095  72.3055172   7.3207307  25.1604843  72.0836782   6.6492403
  24.6774316  71.6779661   8.0251205 107.7464581  34.7908545  26.2968588
 108.5855484  35.0998354  25.9552526 107.6110744  35.3000379  27.0960045
 102.1021080  86.0897827  17.7240539 102.2100544  85.3717995  18.3478189
 101.8919468  86.8494034  18.2672346 110.0691700  89.6061134  10.6314445
 110.7255077  89.4734573   9.9474418 109.8328781  90.5309677  10.5605185
  93.9866066  75.7818222  16.9035220  93.0349159  75.7337904  16.9941127
  94.2746544  76.2845612  17.6654375  47.1701241   3.0653584  59.5189476
  47.3652363   3.3990496  58.6432695  46.6233253   2.2948772  59.3653202
 107.0453358  98.9858150  15.9681475 107.8671646  98.9654350  16.4584756
 106.8621349  98.0675602  15.7694733  44.2207479  96.6434956  54.0420961
  43.6069822  97.2529793  54.4520235  43.7813759  95.7943058  54.0875578
  98.9581871  76.3229847  47.9320765  99.9088192  76.3493776  47.8233051
  98.7201214  77.2173834  48.1762171   5.5227232  82.3409271  35.8496833
   5.9845245  82.3908901  35.0127387   5.6377393  81.4338493  36.1329198
 113.8957805  77.0792818  29.5093369 113.5602330  76.3857794  30.0774002
 113.6555232  77.8914356  29.9553299  10.6587255  60.6365395  28.7247300
  10.8657920  60.5259562  27.7967620  10.6626439  59.7471809  29.0786433
   0.5504901  90.8050442  37.1115804   0.6767657  89.9132156  37.4355149
   1.3059103  90.9634495  36.5454721  51.9357109   0.1269466  55.0949621
  52.6876545   0.7010170  54.9491692  52.2220421  -0.4724334  55.7841587
 109.5369339  86.4530373  23.1897330 108.6643887  86.6244125  23.5440230
 109.5355988  85.5163860  22.9924488 104.8343849  71.5890074  50.0381470
 104.7208405  71.0605335  50.8281183 105.0438595  72.4644375  50.3636885
  93.2507992  62.6960802  71.9958735  92.9028320  62.7221537  71.1045408
  92.5838089  63.1320810  72.5262165 102.0275402  69.1779661  28.8254690
 101.4793015  69.2509127  28.0442238 102.8166389  68.7283039  28.5231948
 100.9689140  72.7714777  22.7933860 100.3834820  73.5230827  22.8860569
 100.4567528  72.0282364  23.1119990  11.2070656  70.3290510  75.7550001
  11.7351127  71.0350466  75.3822136  11.7139328  69.5351744  75.5844927
 101.0664368  37.3514128  23.8455510 100.3036404  37.4858093  23.2831383
 101.8095970  37.3394704  23.2423902  20.3435922 101.1397934  33.0610466
  20.6797671 102.0237827  32.9134560  20.6169605 100.6472683  32.2871423
  14.8594236  81.0644722  48.3239031  14.9181247  81.2457752  49.2619419
  14.0092742  80.6382942  48.2150650  12.5255752 100.8663940  77.6627541
  13.4033918 100.8174229  78.0412674  12.2635603  99.9531174  77.5465488
 103.9159393   0.2864487  15.7785690 103.6673450  -0.0548248  16.6376197
 103.7065887   1.2194746  15.8217716  86.3506031  74.5702887  68.5587358
  87.1000671  74.4564438  69.1431808  86.2191677  73.7069368  68.1668425
   7.5065821  66.2016296  32.7315426   7.1035600  67.0595503  32.5981998
   8.2468688  66.1878729  32.1248960 102.9443836  64.8143053  21.0793281
 103.4933758  64.9088955  20.3009367 103.5602856  64.8415089  21.8115544
 101.6268539  63.0375242  34.1657209 101.6875458  63.9770222  33.9928246
 100.9129429  62.9559946  34.7981143   2.8228977 107.2657299   0.4169872
   3.3123070 107.1180534  -0.3922737   3.3710882 106.8825245   1.1017333
 103.6757469  71.8377733  12.9611719 103.6426067  71.8642282  13.9174318
 104.3224430  71.1605883  12.7625775   6.7770773  43.8379908  47.2100639
   5.9953547  44.1833973  47.6411533   7.4916309  44.0358686  47.8154469
   9.8863775  62.1973562  79.9950886   9.3541461  62.6363468  79.3315744
   9.2754614  62.0126677  80.7084656 111.5554428  54.9525166  73.3952141
 112.2329140  54.2991447  73.5695219 111.1031437  54.6268177  72.6170254
   9.0084499  48.6311054  29.6335268   9.9543333  48.4856462  29.6140718
   8.8912964  49.3646765  30.2371645  25.4400945  54.6336937  29.8010135
  24.5081592  54.5593262  29.5955920  25.4715395  54.6833992  30.7564044
  24.0131283  89.5059395  39.2703676  23.4306645  89.4904518  40.0297928
  23.5827875  90.0947666  38.6504292  16.4397228  63.6003542  51.9972229
  16.6137815  62.8311300  52.5396538  16.7607844  63.3584690  51.1285210
  25.6590891  78.4837198  38.5055041  24.7796941  78.3872223  38.1400156
  25.5900669  78.1299591  39.3922520   2.6079163  87.6779747  34.8259854
   3.4721702  87.6502705  35.2365088   2.7247700  87.2248840  33.9909458
   3.8728124  52.0650434  50.0454760   3.0062684  51.6593456  50.0727654
   3.8783872  52.5632668  49.2281818  78.4769917  63.3744383  24.1735435
  78.6493540  63.8145876  23.3412004  79.2558479  62.8397369  24.3275166
  80.3188992  85.1153851  12.8000379  80.0888538  86.0410976  12.8798187
  79.4788313  84.6570873  12.8217638  47.3745632   4.7846103  57.2426653
  46.6505575   5.4069024  57.3119545  47.1587944   4.2502582  56.4783716
 102.2742271 106.9388008  13.1698668 102.3428535 107.2891712  12.2817445
 101.4032936 106.5431881  13.2046318  99.1943836  76.2388325  66.9539213
 100.1257133  76.4564180  66.9929171  99.1561985  75.3086948  67.1766615
  24.2284203  43.4199524  35.0372982  25.0836730  43.8049984  34.8462105
  24.0124631  43.7390614  35.9135199 100.1118183  58.5765171  19.0478194
  99.6871376  58.8790798  19.8505187 100.7477570  57.9253387  19.3441141
  33.7038994  94.1960716  30.9259319  34.5517111  93.9404106  31.2893653
  33.8977361  94.4548798  30.0249982  99.7607136  63.0472898  71.2666082
  99.2175961  63.2028008  72.0393038 100.5187225  63.6191368  71.3876152
  51.3467121  10.9139180  60.6441736  51.4083242  11.8691325  60.6441450
  51.5192223  10.6628072  61.5515947  89.7194099  41.6184473  30.6958008
  89.0718555  41.8299484  30.0233698  89.2242527  41.1459732  31.3649869
 106.0694981  19.1301095   4.0319347 106.5420723  18.3556104   4.3369880
 106.6451263  19.8631823   4.2498526 109.2487335  99.9712849  18.4952486
 109.4952583 100.8960915  18.5093534 109.7376728  99.6042824  17.7587199
 108.6651325  18.2714915  25.5637097 107.8384972  18.7539923  25.5532813
 108.8169384  18.0366409  24.6482706  13.2717180  88.9614773  28.0222917
  13.5154808  89.6348286  28.6574268  14.0600288  88.8332748  27.4946880
 110.6410122  67.2867680  85.5706215 109.7227859  67.2407675  85.3042030
 110.7153416  68.1229115  86.0305882 105.7120228  52.0152330  86.9013309
 105.6051254  52.0811558  87.8502560 104.8225784  51.8977690  86.5676880
  95.7291412  13.5549462  11.3355923  95.5565929  12.7520919  10.8437765
  95.1481342  13.5005665  12.0943511   7.9139566  52.3074293  92.1342850
   6.9773632  52.5012064  92.1726990   8.3040172  53.0877161  91.7402840
  88.9090919  15.7215190  37.9832554  88.0696392  15.9841108  37.6056433
  88.6849403  15.0345004  38.6109424  40.1449299  95.9207344  49.7731972
  39.4905519  96.2737274  49.1703606  39.8446679  96.1946392  50.6398296
  73.5239792  18.0951202  36.6483951  74.0528059  18.7430513  37.1139693
  73.1079197  18.5887051  35.9416413  24.1735172  87.5097847  16.2007427
  23.4292579  87.6951885  16.7734039  23.7771797  87.2178936  15.3797984
  86.0608768  14.9460757  14.6270776  85.4592133  14.9591458  15.3714299
  85.5101204  14.7189307  13.8778806  67.7158117   0.8705027  41.2281370
  68.2832432   0.2823560  40.7298040  68.2501507   1.1441293  41.9736862
  21.4149261  93.9749527  23.7764907  22.0421815  94.0798092  23.0610967
  21.9462895  93.6950207  24.5218229  47.6990843  59.8149538   4.3940195
  47.9646444  59.7782564   3.4751266  47.5537968  60.7456017   4.5643610
  84.3171310  15.0825226  16.7218339  84.6058846  14.2011452  16.9585419
  83.4514332  15.1663780  17.1215427  34.4233251  97.2618389   7.2811097
  35.2485847  97.4470806   7.7292848  34.3861675  97.9042339   6.5724641
  69.9345541  16.6147041  10.3933537  70.2816629  15.8231652   9.9819982
  69.0934277  16.7605090   9.9603629  77.3193216  13.2466483  29.4211864
  78.0711174  13.7724817  29.6941924  77.0214367  12.8195488  30.2243567
  89.5450878  17.6986599   1.5204260  90.2475929  17.3000252   1.0068028
  89.5739746  18.6263382   1.2863109  80.7893562  24.7625089  30.4888749
  80.3882122  24.1997266  29.8266125  81.6511726  24.3752003  30.6421638
  65.5925083   3.1226417  16.4479291  65.0225210   3.8557452  16.6801035
  65.9398079   3.3528590  15.5861783  78.2937336  27.1392488  21.3617015
  78.7696409  27.4016905  20.5737495  78.1823826  26.1929584  21.2702250
  54.2722750 105.1355457  28.7830997  53.3375788 105.2259731  28.9685631
  54.6592617 104.8817921  29.6210027  84.0273190  29.5605302  31.5453482
  84.4766235  28.7325954  31.7152977  83.2035732  29.4894147  32.0276570
  10.1694715  61.9681454  88.7434578  10.4844868  61.2335634  89.2701244
   9.2213678  61.9680500  88.8751030  60.9378147  24.2649627  19.6254706
  61.7883110  24.0636826  20.0158238  61.0699368  25.1031327  19.1824734
  85.7919121  69.5800829  88.8469982  85.2426243  69.0331602  88.2853985
  86.1759090  68.9684820  89.4752693 110.9625244  33.9896035   4.3817723
 111.1078358  34.8167396   4.8410815 111.8383884  33.6192942   4.2723972
  56.3112974  81.6429710  11.9361365  56.5608025  81.7426109  12.8548586
  56.8274355  82.3039818  11.4747286  67.6460266  23.0497479  51.6231966
  68.1825256  22.3837256  51.1932945  67.2409821  23.5326815  50.9028196
  89.3369102  30.5476952   9.6752566  88.6814213  31.2390232   9.7681558
  89.9101162  30.6576061  10.4339349  69.8657751 103.2845783   7.0209235
  70.2268982 104.1180706   7.3227537  70.6256199 102.7934837   6.7083627
  15.6517327  78.7910843  80.8743095  15.7662487  79.7413158  80.8876228
  16.4452195  78.4484291  81.2856483  56.8419456  29.8089600   5.6835854
  55.8964109  29.7665191   5.8264124  57.0873022  30.6904554   5.9646535
  93.8614941  59.0859652  13.2006800  94.6692848  59.5970345  13.1504989
  93.6328888  58.9091015  12.2881603  90.8232403  53.9896965  22.0128655
  90.3341198  53.2588434  21.6349053  90.1728058  54.4773388  22.5182104
  72.4723196  26.0252428  13.4173977  72.9748869  26.7302990  13.0092883
  72.5213718  26.2082124  14.3556666  39.4944167  96.8459988  21.6164756
  40.0564766  97.5541210  21.9309425  38.7122178  96.8992329  22.1656227
 110.8558178  26.8483448  36.5047908 110.7031536  27.5060344  37.1832943
 111.8086910  26.7722344  36.4550781  48.4296179 102.5663757  11.4469099
  48.9168024 102.2277737  10.6957543  49.1052151 102.8242874  12.0740390
  95.1857185  30.5405545  27.7645588  95.5328846  31.3649416  28.1052852
  94.2850494  30.5084658  28.0870271  76.3459396  19.4547474  28.6728024
  76.6446066  19.8139787  27.8373504  76.4264536  18.5066772  28.5683489
  51.3082552  22.7608466  15.9277892  51.8052530  23.4179521  16.4150679
  51.7879438  22.6587033  15.1057816  55.6131601  25.3066134  29.8208594
  55.2081633  26.0666180  30.2387142  56.2484884  25.6795335  29.2096925
  79.1965771   6.0067797  17.5228333  80.1450253   6.0029888  17.3937678
  79.0036535   6.8832624  17.8556848  17.1546471  46.9881773  85.7193661
  16.6882896  46.1537933  85.6689072  17.6673913  46.9276142  86.5253735
  29.3875623  81.3233852   9.9059361  29.0158057  81.7396450   9.1282779
  30.1715517  80.8764935   9.5867491  11.3856113  65.4768658  83.1526470
  11.7197907  66.3734198  83.1800938  10.5015254  65.5396175  83.5141563
  99.5679092  15.1498222  14.9033833  99.5645905  16.0985398  14.7762811
  99.0442753  14.8091698  14.1781318  63.1388426  23.1961751  43.1266212
  62.8305674  23.7507725  43.8432932  63.8760948  22.7120352  43.4985018
  87.0570660   4.5947212  57.3385191  87.2964954   4.2821112  58.2109785
  86.8121338   3.8031325  56.8593264  55.7030964  96.7133713   9.9993217
  56.1346531  96.6439915   9.1477501  55.8719873  95.8716774  10.4227066
  61.9116163  68.7111807   1.0532296  61.3770771  68.2425690   0.4122161
  62.7915621  68.7120056   0.6764939  59.7637749  10.8982646  45.2390337
  59.5086336  11.8140435  45.1273012  60.5639648  10.9347928  45.7630491
  45.6340981 107.2703266  15.2081692  45.5164099 107.6453018  14.3353701
  45.8781385 106.3590050  15.0464118  44.3482161  94.1767597  11.5609789
  43.4230995  94.1102791  11.7975545  44.6140099  95.0413227  11.8742096
  64.1999912  18.8782549  12.3313653  64.4227934  19.5621312  11.6997755
  63.2744312  19.0248108  12.5265431  17.6147771  59.5233774  76.0423517
  17.8811598  58.6874819  75.6595373  16.8234348  59.3175602  76.5399981
  23.3728504   8.4970498  41.8339634  24.0059328   8.2858497  42.5201368
  22.5910234   7.9964167  42.0670938  71.4934444  86.1955929  68.8364887
  70.7402611  85.6173038  68.9570189  72.2501898  85.6522560  69.0563917
  90.8735466  22.3606920  13.2276499  91.7378902  22.1041870  12.9061687
  90.9309292  23.3098006  13.3378041  14.8979223  32.5023627  18.8182235
  15.0387299  32.4144840  17.8755236  14.1016519  33.0282187  18.8934636
  79.3260765  41.8625164  11.6348696  80.1185799  41.3953018  11.8992198
  78.8016415  41.9157219  12.4338508 111.7232227   8.0054468  58.9205647
 111.4793110   8.8030064  59.3902826 111.3447094   7.2962278  59.4401455
  36.4398003  35.3327751  19.4099414  37.2625923  34.9435234  19.1137528
  35.7651353  34.8821902  18.9019716  40.9334755  82.8843594  23.9491200
  40.4732227  83.3463192  23.2484102  41.3855791  83.5745525  24.4343710
 103.9471054  36.3958836  27.9654932 104.4385719  36.8512011  27.2818446
 103.6256218  35.6008673  27.5402451   0.7765840  76.6778660  90.9456062
   1.0149950  76.5044451  91.8562698  -0.1545562  76.4615536  90.8964348
  90.2882290  20.3840637  23.1417203  89.8544693  21.1931133  23.4128714
  89.5713902  19.7712159  22.9780674  80.6164837  36.0224247  14.3423498
  81.3542843  35.9972787  14.9516535  79.8575974  36.2151599  14.8929656
  45.8428383   0.5989699  80.7626534  45.6677103   1.3957244  81.2633991
  46.4269304   0.8818159  80.0590420  82.4318504   5.4228306  31.6773605
  81.9483280   4.6789700  31.3180518  81.8034267   5.8631229  32.2495937
  92.1761036  80.8985043  65.9263325  93.0538368  81.2717533  66.0070515
  91.8305874  81.2721062  65.1156139  49.3076277  16.4769959  65.4507780
  50.0153542  15.9478807  65.8187246  49.4705486  17.3595929  65.7835054
  98.0189991   4.8678839  -0.2017744  97.7231693   5.7772124  -0.1588942
  98.1117916   4.6028015   0.7132948  81.0283756  19.2257309  12.7958107
  81.4375687  18.4146082  13.0972683  80.4399776  18.9502871  12.0928538
 110.1952648  67.7294922  88.7743950 110.4738998  67.9391718  89.6658230
 110.9711361  67.3468542  88.3647060  28.3529902  98.8206005  47.0288754
  28.2830334  98.1112576  46.3899899  27.5289512  99.3003941  46.9452477
  86.9663334  93.6620808  12.5223207  86.8202782  93.0077553  13.2055163
  86.4790630  94.4307804  12.8187943  38.9077735  35.3489256  21.3613510
  38.3264804  34.7173262  21.7849255  39.1601896  35.9497666  22.0624280
  88.9483929  22.3249483  24.5800447  88.2925797  22.3276186  25.2772760
  89.1048336  23.2509375  24.3948293  70.4456902  20.7112193  53.0707693
  71.0215950  21.3480735  53.4938335  71.0038853  20.2732992  52.4282169
   0.4981037  13.6707592  19.5287800  -0.4161423  13.6923754  19.8114789
   0.4904567  14.0768528  18.6620259  30.7183170 103.1798458  41.3662577
  31.4869881 102.9807663  40.8317041  30.6273031 102.4235725  41.9459152
   6.2739336   8.6104208  42.2862482   5.5830026   8.1772470  42.7874517
   7.0232618   8.0182445  42.3500109  87.0562458  26.2950468  60.6112242
  87.3163128  27.0734954  61.1037827  87.7006626  26.2312698  59.9063206
 102.0737934  30.0005269  31.2621307 102.2615528  30.9391212  31.2662482
 102.3948288  29.6883321  32.1081233  58.3045483  24.6632481   2.1471623
  58.4103680  25.2625179   2.8860182  57.3910522  24.3815541   2.1961750
  56.0130310  38.0071878  12.4963343  56.2332726  37.0784926  12.5688136
  56.8350887  38.4295630  12.2472346  46.6790581  85.1825142  39.9973845
  47.4449444  85.1585484  40.5710363  46.5946436  84.2859364  39.6729684
  13.3369756 101.5972233  52.2002983  13.1614435 102.1835518  51.4643335
  12.7707124 101.9178295  52.9022884 111.4015007  23.1337953  30.5260396
 111.3980579  23.2256007  31.4788198 111.9539833  22.3697495  30.3610301
  92.0959759  42.9751158  89.0739155  91.3278008  43.3030224  89.5414734
  92.7079868  43.7110996  89.0729427  92.4101353  40.6829548  12.6089573
  92.4392414  40.5324030  13.5537958  93.3198833  40.8543253  12.3655963
  84.0670395  96.5752697   0.4699643  84.6236992  97.1334171   1.0129428
  84.5128822  96.5432835  -0.3764614   6.6409177  57.1875906  58.8211298
   6.5474820  56.3115311  58.4469414   6.7911226  57.0347977  59.7540379
  95.9405327   7.8071243   4.1413385  96.6207790   8.3094984   4.5898056
  95.2719021   7.6591259   4.8101115   7.6958162   9.1860932  15.3677166
   7.3973721  10.0781322  15.5449998   8.6347526   9.2064583  15.5526888
  91.1661148  12.9036558  23.5867667  90.5857754  12.8425300  24.3455148
  90.8063412  13.6226857  23.0673552 106.9512272  33.2965565  35.6335926
 106.2880993  32.8874063  35.0776362 106.4686966  33.5875511  36.4073586
  29.4061875  70.4864836  91.7859077  30.2927136  70.8338690  91.8840313
  28.8348675  71.2261200  91.9927025  13.3700824  44.9851179  78.3286619
  13.7845123  45.7984591  78.0406523  12.4507368  45.2177429  78.4587383
  52.1532679  13.7910378  22.2544146  52.7899885  13.5435140  22.9249001
  51.3311577  13.8983297  22.7328038  87.3519421  27.1995401  38.6384535
  87.9150200  27.6647782  39.2570996  87.8193760  26.3845587  38.4553075
  14.3065333  47.1535015  88.5614109  14.7641957  46.3866711  88.9060020
  13.4971595  46.8025112  88.1899834  41.9414854 105.6599522  36.4080453
  41.4659691 105.2237415  37.1150374  41.7487097 106.5898514  36.5278554
  87.1338081  22.6191449  12.8493750  87.6949310  21.9363999  12.4816394
  87.6967430  23.3918381  12.8971934   2.7820736   0.5798607  35.7053566
   1.9420969   0.3210520  35.3262925   2.9461569  -0.0690549  36.3896203
  81.3806438  18.1617439  76.9831562  81.5372562  18.6543632  77.7887821
  81.3475609  17.2473192  77.2641611 112.4787521   4.2168915  11.4109886
 112.1990585   3.7973133  12.2245979 113.0345726   4.9427378  11.6945994
 110.5560207  81.1880112  91.0453892 110.9241962  81.4017582  90.1880741
 109.6438026  80.9613228  90.8645439   7.6450914  27.8443432  10.1366019
   7.5061059  27.4623680   9.2699933   7.6282996  28.7896585   9.9871767
  81.6618061  17.2251356  16.2129486  80.9577179  17.8443444  16.4055109
  81.5821362  16.5536249  16.8904126  99.9189663  40.7159901  84.0118027
  99.7384262  41.5462208  84.4526672 100.7962418  40.4733419  84.3080044
  79.8662996 104.6234989   6.2172359  79.2180586 105.3068829   6.0469669
  80.2355385 104.4239235   5.3569639  90.1810741  34.9215388  50.6915808
  89.4608498  34.5683146  50.1693392  90.9199715  34.3430662  50.5028009
  91.7216301  49.3689585  20.5131888  92.1098518  49.4202518  19.6397579
  90.9449673  48.8213825  20.3983021  47.8284407  95.3591824   8.2494855
  47.0431423  95.9019279   8.1789321  47.5008249  94.4952393   8.4994835
 109.2559338  98.0064106  88.1385803 109.4261551  98.6195564  88.8536358
 109.8412132  98.2893658  87.4359989   2.8198144  20.1810789  21.2351608
   2.5789562  19.6831405  20.4539609   2.0139691  20.2236152  21.7499781
  77.1801805  10.8176041   9.4650102  76.2730503  10.8463430   9.7691846
  77.7005482  10.7743859  10.2672470  20.0687838 104.6334553  39.6426964
  20.5097008 104.7459888  40.4848146  20.6388831 105.0747108  39.0129995
  70.3892565  14.1207492   9.1743761  69.4824839  14.3461335   8.9665449
  70.3485823  13.2105756   9.4679081  18.4021640  79.3745136  86.3039684
  18.7428164  80.1055145  86.8195534  17.4785757  79.3184185  86.5490627
  48.0819559  83.7176228  37.1410251  47.9582691  84.4567585  36.5455365
  47.2965384  83.7168121  37.6881552  74.9719858  13.2072556  12.5969589
  74.2650938  12.7889657  12.1054602  74.9577904  12.7756023  13.4511876
   4.6668971  18.7413204  17.8663146   4.1834471  17.9163861  17.9109454
   4.0253651  19.4084156  18.1105530  80.2773380  14.4694114  19.5601094
  79.7797966  14.1228223  20.3007555  80.1214314  15.4134297  19.5875955
  96.5626320   0.1878044  45.9281254  95.9468207   0.4062626  46.6276169
  96.0160431   0.0966522  45.1476383  92.9655743 106.9263077  17.7205932
  93.5670948 107.5904560  17.3839819  92.4387741 107.3886395  18.3724904
  78.2627058  51.9246006   8.0949342  79.0878248  51.4900970   8.3108461
  77.7143526  51.2298155   7.7304989  66.3782644  17.2751427  41.3192749
  65.9087706  16.4482033  41.2098408  67.2310448  17.0214915  41.6723394
  18.8272107  63.5391378  17.6137984  19.7501874  63.2892370  17.5702691
  18.7781346  64.3604898  17.1247077   1.3960977  27.1716976  57.7929926
   1.2223039  26.5295076  58.4811926   0.7320880  27.8486061  57.9238272
  38.6051488  14.5705926  50.4743385  38.5307407  13.9304066  51.1820507
  39.2325735  14.1819572  49.8648024  88.3764267  56.4226818  34.6586442
  89.0931892  56.8070984  34.1539574  88.3740520  56.9113111  35.4817295
 103.9505005  25.8206940  27.4256539 103.1455040  25.6084657  27.8980708
 104.6129322  25.2476597  27.8117132  80.8737564  22.8221607   9.2341489
  81.1363602  22.2339892   9.9421912  81.6887569  23.2389021   8.9542657
 105.3506947  32.0647931  33.7633109 105.6533146  31.8970132  32.8708410
 104.5610046  32.5943398  33.6528659  85.6821573  17.5646561   0.2940568
  85.9833771  18.4536665   0.4815587  86.1018998  17.3396748  -0.5362597
  86.6053009  34.4844937  15.6062984  86.0571957  35.1027703  16.0895622
  86.1886978  34.4158196  14.7472548  99.5198441  12.6102483  38.5962486
 100.4611397  12.7285743  38.7235260  99.1794300  12.4367118  39.4738770
 103.3499146  26.8661427  36.9522691 104.1449833  27.3137951  37.2415829
 103.6002541  26.4387512  36.1331844 112.7820492   2.7064475  27.3095965
 113.0056000   3.2329306  28.0771065 112.2728634   1.9757725  27.6604152
  90.4511452  56.9093657  11.4542866  91.3560867  57.1058655  11.2120008
  90.4955387  56.6839266  12.3835003   0.6089563   9.0433443  23.5691786
  -0.1916204   8.8478440  24.0560961   1.2700349   8.4681219  23.9543104
  86.3366699  10.4791868  18.4100223  87.2057152  10.2607286  18.0734730
  85.7851028   9.7432661  18.1446481   1.4406365  60.1827574  82.3382568
   1.0511462  59.3714285  82.6642609   2.3714428  59.9805117  82.2437572
 101.9823551  86.5754986  69.0394068 102.4920273  86.5080547  69.8468208
 101.6486454  85.6905174  68.8921928  99.8867893  49.8999262  22.3001409
  99.2613602  49.7167730  23.0012274  99.4642353  49.5658493  21.5088987
  93.9951134  46.3083267  17.7169609  94.4009876  47.1700954  17.8110135
  94.7223663  45.7227898  17.5060427  64.6478224  21.7198324  14.8490274
  64.6318626  22.5951719  15.2360117  64.7954082  21.8731928  13.9157903
  39.4488883  83.0490589  89.5015907  39.2512608  82.1656799  89.1904449
  39.8527431  83.4829617  88.7500191  87.8169060  16.1722362  24.0851259
  88.3488083  15.5542827  23.5836816  87.2714901  16.6061676  23.4290314
  91.1314678   6.7830122  47.9349947  91.5208054   6.3988674  48.7205362
  91.5089226   6.2827802  47.2114420 103.3706760  15.3373230  34.9295688
 102.5716877  14.8622239  35.1578903 103.0931664  16.2502968  34.8540759
 102.2441673  38.8025236  43.6029196 103.0694962  39.2824984  43.6714125
 101.6122341  39.3440199  44.0758514  53.1328964  23.3033633  68.7311363
  52.3885775  23.2010269  68.1380510  52.9056406  24.0593910  69.2724371
   7.9299015  23.0353618  25.9783983   7.5953925  22.7008867  26.8105412
   8.8592774  22.8063297  25.9844279 104.6651077  34.3922019   5.7595718
 105.5166531  34.5460606   6.1687487 104.7206593  33.4991956   5.4194498
  29.1218662  42.2915268  44.8072433  28.7681556  42.7704763  45.5567312
  29.6377659  42.9411554  44.3296909  10.6100321  25.2615118  11.5815437
   9.7449702  25.6712317  11.5869498  10.5181897  24.5004773  12.1548009
 113.2079887  75.2564716  71.9157600 113.1771374  75.6402874  71.0394239
 112.3139381  74.9548292  72.0767403  80.3643036  18.1340528  36.5655661
  79.5695019  17.9353940  36.0705376  80.0926399  18.7993407  37.1978807
  73.4463215  40.5307341  21.9916511  72.9104328  40.6794262  22.7707171
  74.2741489  40.1910973  22.3316264  51.0488319  90.9015656  40.4195452
  51.7094374  90.8212852  39.7315168  50.3630543  91.4446449  40.0309467
  60.7623529 102.9015541  81.9374847  61.3729954 102.2204113  82.2192669
  60.8351374 102.9085636  80.9830856  77.0025826   7.2786772   0.0918967
  76.2644482   6.7098969  -0.1269225  77.0468330   7.2565645   1.0478175
  61.4799595   4.2119777  19.4944596  61.6272831   5.1576269  19.4778574
  62.0977592   3.8847727  20.1482892  95.5645752   3.4270644  37.1031594
  96.1579609   4.1382444  37.3447132  96.1425591   2.7189600  36.8189931
  18.2076979   7.1222997  19.8539829  17.7822864   6.8790495  20.6762266
  19.0461171   6.6608393  19.8724222  79.5941687  47.0346975  17.8911805
  79.2128944  47.8688240  18.1652033  79.4044876  46.4358711  18.6134410
 112.3251343  65.8834124  79.0496349 112.6376915  66.2777996  78.2353878
 111.4879036  66.3153696  79.2190361  92.8978443  28.3391118  32.1341228
  93.4558678  27.5668573  32.0420766  92.1140099  28.0165863  32.5788760
  97.5973606  67.3240137  67.6002550  97.4396896  67.0839691  68.5133553
  98.4490585  66.9384336  67.3948812  80.2432537  95.0618076  43.8036966
  80.0054550  94.3806362  44.4327354  80.4716778  94.5829201  43.0070066
  98.1501579  69.2818975  39.8851109  98.3334351  68.4496927  39.4491339
  97.8389931  69.8556519  39.1849589  45.2305651   3.0283430  20.7225561
  44.6852255   3.2141384  21.4869666  44.6060848   2.8960186  20.0092912
   4.1392839  26.8459082  13.2492030   3.7229079  25.9841061  13.2365561
   4.2880708  27.0264268  14.1773772 106.5949345  11.3594949  11.4971077
 107.3546696  11.0143924  11.9660866 106.0898399  11.8213093  12.1663189
 100.3214645  40.3722048  35.1214147 100.4057980  41.3185883  35.2375317
 100.5872440  40.2174902  34.2149639  97.0226955   2.7769399  19.2066514
  97.5121593   2.8897610  20.0214696  96.1963558   3.2356906  19.3581498
  95.7602406  45.7161760  41.8885422  95.0202179  45.3077078  42.3377037
  96.4990616  45.1340342  42.0659637  97.7403831  40.0772142  38.1275129
  98.0974388  40.0889540  39.0155482  96.7967987  39.9730659  38.2501149
  99.4284534  31.5061402  30.5365968  98.8634491  31.0507870  31.1608148
 100.2829075  31.0864377  30.6365633 101.3021469  87.4523163   9.7884953
 100.7225513  86.8108463  10.1993680 102.1294117  86.9858170   9.6691602
  76.4079857  22.0223188  12.0515406  77.0398808  22.1795535  11.3499534
  76.4503765  22.8104353  12.5931203  74.4919777  65.0753164   9.5771474
  74.8947287  65.3792286  10.3905714  74.9215794  65.5867577   8.8915056
  12.3544335  43.7648535  27.2906733  11.9563985  43.1671238  26.6578078
  12.8961110  43.2019949  27.8438544  28.7196755  91.8545628  91.3165474
  29.3850541  91.8152332  92.0035362  29.0587449  92.4949265  90.6910896
 107.1559238  22.4153233  28.8944650 106.5615082  22.9555321  28.3738089
 106.6504478  22.1864891  29.6744418 109.0759277  29.7018719  17.8088760
 109.3332100  28.9633822  17.2569060 109.7073078  30.3897691  17.5981677
   4.5178345  16.7711532   0.4016377   4.4462287  15.8853781   0.0459615
   5.4595363  16.9187236   0.4891216   2.3019117  46.9705486   8.3007383
   1.6281363  47.6347876   8.4458053   2.5244159  46.6594648   9.1782063
  89.8404312  57.1705580  40.5812502  90.6138706  56.9660187  41.1067820
  89.8765278  58.1195164  40.4612160   7.6620412  10.9655595  37.3093438
   7.7171236  10.6897950  38.2243037   8.3211416  11.6547680  37.2268200
  74.4272661  48.3904791   9.2316669  75.1958084  48.3238602   9.7983593
  74.3952370  49.3131733   8.9790142 105.5649090  43.4351206  11.8360877
 105.3874969  44.2305470  11.3340342 105.0744247  42.7504301  11.3812733
  87.9720020  28.0282116   9.5482326  88.4249973  28.8383126   9.3142134
  87.9725361  28.0214167  10.5054080  72.0955801  49.1800404  14.8028028
  71.8931150  49.9999380  15.2533722  71.4585543  49.1349459  14.0897834
  21.8177462  64.7666121  63.2442379  21.6216063  65.0183678  64.1466713
  22.2248411  63.9035654  63.3194399  93.2458210  37.0226359  11.1925948
  93.1084347  36.2968755  10.5838025  92.3857594  37.1718979  11.5853357
   2.1314150  17.5490499   4.4058299   1.9063611  17.8848219   3.5381663
   1.7672944  18.1926978   5.0135845  91.9596577  35.8764696  34.6327519
  91.0216904  35.9143782  34.4456482  92.3768902  36.1878586  33.8295174
  92.9351425   3.1205496  44.2219067  93.7048054   3.1027320  43.6531067
  92.8054333   2.2074249  44.4780493  84.1689491  79.4880199  27.4965119
  84.2308712  79.6082115  26.5489101  84.6890450  78.7040710  27.6730037
  95.0243473  45.4002523  22.1610761  95.1192188  44.6739244  21.5448928
  94.0983295  45.3895664  22.4031663  81.5618896  51.8956518   1.6038144
  81.4779377  50.9478378   1.4997260  81.6556549  52.2273016   0.7108135
 112.3187733   7.7306068  28.3695698 112.8518867   7.4448550  29.1114426
 112.9139805   7.6988488  27.6205969 102.1339035  38.6589980  12.5915766
 101.7757607  38.0017829  11.9948876 102.9862213  38.3084965  12.8502846
   8.1918812  41.9295025  32.1566033   7.2586465  42.0937061  32.2920370
   8.4732974  41.4768934  32.9517007  79.5813322  21.9622159  33.6461592
  78.8817739  21.5998721  33.1025100  80.2819920  22.1697879  33.0279183
  10.8877778   0.9192741  31.3708878  11.5181959   1.6356148  31.4461279
  11.2095594   0.2523387  31.9774246 109.7571564  34.3111777  29.0338564
 110.0350285  34.4846106  28.1344461 108.8294125  34.5463943  29.0474844
  74.1783857   4.1879034  27.5363350  74.6253586   3.5654503  28.1099200
  74.8554707   4.8199764  27.2949362  23.0613112  35.5203581  89.4849968
  23.0656743  36.3919306  89.8806953  23.1853199  35.6813574  88.5496235
  98.4805965  91.1835480  77.8176212  98.8775253  91.4916515  78.6323309
  98.0094242  90.3883743  78.0664921   9.5263046  71.0355377  11.5813088
   8.8924867  70.3477144  11.3778222   9.3578064  71.2528801  12.4981523
 110.2354336  64.4435453  24.5182252 110.6478214  63.8098955  25.1052999
 110.8140850  64.4761419  23.7564278  63.0984449  86.3809109  18.0610311
  62.8181458  87.2506809  18.3459067  62.8830385  85.8070946  18.7962639
  14.3340743  32.4598694  12.0305157  13.6244321  32.3665190  11.3949633
  13.8940513  32.4741769  12.8804612  56.9770098  87.1912003  88.6839962
  57.8727818  87.3706818  88.9696598  56.7277431  86.3993835  89.1605759
   4.9862665  16.6132283  27.3570037   5.5619544  15.8487046  27.3748660
   4.2084208  16.3387299  27.8426361  27.8008151  72.6299906  92.1243382
  27.3674321  73.4834480  92.1290493  28.1278944  72.5225210  93.0174828
  92.1198654  20.2923512  26.5647483  91.4482307  19.7991562  27.0358014
  92.3867512  19.7124922  25.8514690   7.6223361  52.9814577  22.5132537
   7.2709763  52.1319628  22.2465301   8.1183517  53.2849073  21.7529130
 109.8443317  25.7440972   9.7408050 108.9469719  25.7373691  10.0738776
 110.1729870  26.6170692   9.9555916  86.1876774  32.9075193   7.4194163
  86.5584946  32.4060106   6.6933227  86.7508507  32.7010775   8.1653684
 103.1525803  59.5065498  40.1774454 102.7848244  59.7907066  39.3406415
 103.4307575  58.6038446  40.0226355  91.8946934  34.0096784  32.0829725
  92.0132828  34.9337673  31.8633604  91.1791897  33.7190127  31.5174699
  79.5795250  20.2534676  65.0488281  78.7777472  20.7252431  65.2742386
  79.2934656  19.3520880  64.9007893  86.4820957  35.9610343   3.6098447
  85.8539200  36.2938595   2.9688698  86.5571022  35.0280356   3.4095517
  84.9952602  39.7938347  30.9620643  84.9552441  39.5836997  30.0290728
  84.6833038  39.0016937  31.3995838  97.9027176  31.9918561   9.1936338
  97.4634266  32.1660137  10.0260532  98.8273048  32.1661329   9.3696904
   5.7020211  50.3017902  41.5204000   6.5714747  50.3055191  41.1200666
   5.3898644  51.2014580  41.4235067  19.4675076   8.7677181  41.4967537
  18.6708629   8.8284743  42.0239115  19.9152505   7.9893196  41.8281937
   0.8387879  90.6741142  75.3131866   1.3678962  91.2563515  74.7679472
   0.4363093  91.2526703  75.9608936  13.8546550  48.1716251   8.6608940
  12.9060376  48.2455873   8.5565472  14.0214813  48.4720230   9.5542938
  90.0943756  56.8881702  18.8953424  90.4068470  55.9998798  18.7234938
  90.7598209  57.2695589  19.4680119  77.3358965  35.9949374  29.6428466
  77.4441338  35.2650595  30.2525973  77.4153948  36.7770481  30.1889396
  57.6103497  24.9421692  90.8090782  58.5270786  24.8236322  91.0576630
  57.6472235  25.3976393  89.9680042  54.3121099 107.1493435  10.5979335
  54.9522972 107.6763821  11.0760856  53.7718725 106.7512894  11.2805223
  88.3079243  73.8894606  13.5470724  87.6792717  73.1762791  13.4357202
  87.7669334  74.6630812  13.7053931  95.9711266  42.0185471  56.9553852
  95.4131413  42.7942610  57.0115614  96.3412094  42.0530844  56.0732985
 111.4771271   1.3117068   8.7482578 110.9834099   0.5029249   8.8837057
 110.8432102   1.9179681   8.3650696 105.3256416  38.6855936  50.7324171
 105.1795959  38.8423896  49.7995090 104.5635319  39.0733218  51.1626339
  19.1574061  37.8850174  73.7174988  19.0662694  38.5870123  74.3618011
  19.2756307  38.3393788  72.8833485   5.4970199 102.6679420  92.9157448
   5.8115870 101.8813705  92.4701214   4.8688599 103.0540180  92.3053455
  88.7936497  56.5019894   1.9460070  88.1961441  57.1062231   2.3865946
  89.5514679  57.0396376   1.7160481 104.8745918  29.3547273  20.6687689
 103.9467907  29.2098618  20.8543181 105.3324509  28.7419558  21.2441897
  24.6860242  47.1741486  29.2189503  25.3495264  47.8577948  29.1260934
  24.9561501  46.4929819  28.6030912  79.0738630   7.0442623  21.2347031
  79.8787117   7.1952295  21.7303443  78.3822727   7.4165899  21.7817879
   1.4663920  39.8376775   2.9943687   0.7285526  40.4468489   3.0215093
   1.1743911  39.0847540   3.5082513 108.6683083  34.6251130  22.8826785
 109.0192413  35.4979324  22.7058625 108.0263805  34.4797492  22.1876788
  99.2007732   8.2293546  14.6150696  98.3139038   8.0362952  14.9190974
  99.1910267   9.1681963  14.4287539 100.9450054  29.3372631   1.2724474
 100.2558517  29.1643977   0.6310230 100.5604935  29.0833092   2.1114302
   2.1565710  50.8163118  67.6176643   2.3732525  50.0186491  68.1003761
   1.4444005  51.2135887  68.1188822   2.3391756  50.2038622   4.4179243
   2.1275988  50.3020716   3.4895808   2.0378479  51.0187054   4.8197564
 101.4780712  13.4296596  35.6488609 100.7969666  13.9957619  36.0119748
 101.9189930  13.0634391  36.4154816  98.4520912  42.8212595  13.2490349
  98.4812355  41.8800116  13.4206116  97.8548050  42.9109716  12.5064456
  29.8599315  97.6675415  89.8599243  29.0213132  97.5541592  90.3072357
  30.3315902  98.3069324  90.3937244  10.2030730  38.0178380  38.1599927
  10.9710360  38.2591915  38.6778855  10.5635202  37.6823211  37.3391771
  72.8905869  27.7152634  23.7834334  73.3671427  28.2152557  23.1207633
  73.4345961  26.9429827  23.9379263   2.7879319  60.7154322  23.5134816
   3.1918532  61.4182425  24.0225363   2.1647854  60.3104305  24.1167164
  25.7849216  50.5638456  61.2620449  25.8854914  50.2852201  62.1722555
  24.8397279  50.5530310  61.1112928  25.6968141  94.1001415  92.8420830
  25.1505852  93.7139225  93.5267067  25.1315045  94.1247272  92.0700455
  93.9276123  89.8359680  46.0647058  93.8365078  90.7888031  46.0712004
  94.7115993  89.6667480  46.5871572 107.4080944  36.4704847  28.4060931
 107.9620552  37.2142363  28.6431408 106.5959930  36.6120434  28.8926053
 105.1068783  16.3302577  37.1824431 105.2388000  17.2033274  36.8128800
 104.1647911  16.1783016  37.1075273 110.9387302  85.3721428  69.6533680
 110.3053951  85.1442242  70.3339434 111.7878437  85.1386166  70.0284719
   1.8304317  53.3643246  11.7365944   1.5854385  54.0277004  11.0915017
   2.6292336  52.9715157  11.3846755  95.6783390  36.4870596  27.7544713
  95.1795387  36.7322564  26.9751716  95.0402737  36.0523582  28.3202863
  97.7628517  47.1679544  21.4964890  97.8724003  47.7894640  22.2161841
  96.8154526  47.1084738  21.3735104  12.7953136  86.9940090  89.3820763
  12.0406282  87.2704411  88.8622093  12.7572119  86.0376453  89.3698502
 112.6190567  44.7213316  29.7314262 111.9238758  44.6319675  29.0795231
 112.9224300  43.8261080  29.8823094 107.6533318  43.3992434  13.8240325
 107.5782776  44.2729473  14.2077518 107.1006775  43.4323025  13.0431890
 105.2966785  24.6967411  15.8007085 105.7455349  23.9956594  16.2732005
 104.4912243  24.2915058  15.4793656  94.8958588  24.8995256  18.0163598
  95.7519722  24.6220350  17.6903224  94.8719311  25.8425689  17.8540969
 105.0016212  25.7835937  34.9889898 105.8194351  25.9091234  35.4702950
 105.2348518  25.9438157  34.0745711  15.0091076  45.2088881  24.5133352
  15.1735294  44.3128586  24.8071551  15.5741251  45.3175926  23.7483716
  23.6823630  99.0311527  83.0411243  24.2396283  99.1634369  82.2741890
  24.0994763  99.5459652  83.7319374  16.7315817  16.7524660  37.1649718
  17.3725748  17.3646450  36.8035889  16.8740690  16.7871583  38.1108713
  79.6935606  41.7345238  18.2850027  79.9029255  42.3223734  17.5591731
  80.1551914  40.9223890  18.0762696 113.8835144   3.8120067   0.4656870
 113.0426311   4.2366341   0.2958839 113.8014984   2.9481190   0.0617033
 110.6513214  54.2502403  59.3290901 110.5520344  54.6104670  60.2103472
 111.4140224  53.6750841  59.3899679  87.4384308  57.3073292  25.1165557
  86.8341827  56.6952801  24.6964192  86.8832493  57.8375530  25.6882811
  92.0785713  27.1611977  63.9518166  92.6925850  27.3763847  64.6538925
  91.5125561  27.9301882  63.8845873  34.6233606  98.4246826  71.7343855
  34.1321850  97.9858017  71.0398674  34.2575431  99.3087006  71.7645693
 103.9679718  54.5812654  22.3476624 104.4992161  53.8022232  22.5123072
 104.5891857  55.2287197  22.0143199  88.5482979  60.8568144   9.1177982
  88.1810665  61.5233135   8.5371500  88.3916378  60.0296640   8.6622626
  99.3289471  38.1008196  21.9491315  99.8022938  37.8046012  21.1716771
  98.4785080  38.3880973  21.6167831  71.2955856   6.2088871  89.5651913
  72.1748352   6.1476427  89.9385643  70.9181595   6.9907767  89.9682140
  16.0526311  64.0312910  29.6703005  15.7301831  63.1745195  29.9499440
  15.8974767  64.6027422  30.4223704 100.6904984   9.3038452  18.1013632
 100.1464081   8.5488772  18.3254552 100.6422424   9.8707676  18.8711059
   7.7433610  56.7248201  32.7144980   7.1584117  57.4628830  32.8857636
   7.7180868  56.6147280  31.7639852  92.6760006  32.6479340   4.5074707
  92.8825855  33.5341883   4.8043013  91.8774414  32.7488875   3.9894599
  18.0823219  57.3256874   0.2302042  18.3364725  56.4839602  -0.1481241
  18.7107027  57.4697781   0.9377398  29.9550509  62.2841644  14.0076756
  29.3275619  61.7263412  13.5479736  30.4822731  62.6759005  13.3113909
  14.7141004  90.9933567  29.7200108  15.2531707  91.7810917  29.6485543
  13.8801551  91.3049126  30.0717187  18.5796404  99.3633652  78.1820393
  18.2936621  99.6657848  77.3200703  18.9190555  98.4820366  78.0261898
  32.3724818  32.6152849  16.8102264  31.8765187  31.8477678  17.0951295
  32.8563929  32.3156214  16.0406411   1.8963334  17.0671415   1.6115308
   1.5107979  17.1244061   0.7372797   2.8390494  17.1407330   1.4628603
   4.4277424  65.9715462  61.7969275   4.0807676  65.7527637  62.6617861
   3.6734098  66.3105536  61.3149691  60.8987474  11.8982708  81.6639233
  60.2253342  12.2356284  82.2546291  60.5838633  11.0299492  81.4127350
   5.5300272  61.1578465  27.5480556   6.0120595  60.5603600  28.1197953
   6.0902536  61.2569189  26.7782736 112.4403381  76.7517948  16.8919730
 112.6709843  77.2315979  16.0964715 111.6632271  77.2003174  17.2253740
 110.0716496  43.3574438  44.7666645 110.4561424  42.5703907  45.1525974
 109.3547344  43.0316687  44.2224789  70.4675341  95.0045300  83.1231308
  70.1388454  94.6584892  83.9528561  71.3712215  95.2583313  83.3106518
   0.3434312  60.2427769  13.6789691   0.5139931  60.5066776  14.5831239
   0.4060353  59.2877197  13.6923540  72.4380589  31.8126559  25.0960326
  72.3431540  32.6416612  24.6270180  71.5865803  31.6730785  25.5104399
  17.8557384  12.0006657  24.9729395  18.7242639  11.6761780  24.7350287
  18.0231547  12.8375626  25.4063082  52.4596405  22.2638178  85.4506016
  52.7977610  21.5634227  84.8926163  53.1624746  22.4299717  86.0788059
  59.0335512  16.8083298  81.3744259  58.2808495  16.2836325  81.1017227
  59.7493553  16.5100765  80.8132648  14.9820840  78.2747746  18.6140645
  15.1467621  78.4736300  19.5357859  15.2906477  77.3753548  18.5042453
  70.5766010   0.6557052  77.9534721  71.1561441   0.0992788  77.4331331
  71.1068201   0.9154140  78.7068987  43.7190628  49.9021578  30.2078748
  42.8254128  49.9142313  30.5506158  44.2742443  49.8801041  30.9873104
  54.6168709   3.2648128  88.0938053  54.2803478   4.1202474  88.3606720
  55.4828262   3.2113311  88.4981441  14.4354248  60.6605101  90.3047371
  15.2984631  60.3127098  90.5293083  14.4111931  61.5247631  90.7154846
 113.8575840  43.3586979  11.8292832 113.0775452  42.9307222  12.1822762
 114.5659065  43.0834007  12.4112773  73.3076286  46.2401772  85.9739685
  72.6556683  45.7523823  86.4771938  73.9411354  45.5780792  85.6973457
   2.5418895  42.2075987   2.0540579   2.0274632  41.4871645   2.4181573
   2.4309142  42.9220724   2.6813105  68.8668299  40.8848619  33.6752295
  69.1322422  41.2639904  32.8373456  67.9412174  41.1138058  33.7592363
  32.7765870  37.1005774  39.1521692  31.8434167  36.9150019  39.2569804
  33.0250239  36.6355038  38.3532834  13.0048788  63.6434126  36.5933681
  13.5835457  63.2394552  37.2400475  13.5264421  64.3506908  36.2139487
  79.8923111   0.4640075  84.1229630  79.3693542   1.2615427  84.0411949
  80.2458286   0.3183844  83.2454300  11.7639220  81.1668015  18.2436001
  12.0767903  80.3085613  17.9576516  10.8208036  81.1441040  18.0815983
 104.9176598  67.8067112  24.5953035 105.2775955  68.3120441  23.8663888
 105.6657219  67.3206377  24.9422431  20.6870699  87.5818348  16.7184019
  19.9158084  87.0162582  16.7573154  21.0245442  87.5886154  17.6141119
   4.5019206  94.2202854  41.3032818   4.2286867  93.5056019  41.8784380
   3.7356240  94.7914410  41.2503481  13.4682393  41.5357542   6.6650170
  14.0594590  42.2681284   6.4908910  13.9675117  40.7594109   6.4115530
 107.6664257  55.8379793   4.4460163 108.4947872  56.1925793   4.1230565
 107.2245979  55.5101633   3.6627150  81.6196442  31.7416048  23.8545418
  82.0356560  31.5771270  24.7007775  80.7097340  31.9455957  24.0705872
 113.4871197  32.9410219  41.3633108 114.2390728  33.1673026  40.8159637
 113.4047413  33.6748385  41.9723749   1.0402696  31.8749762  45.6187439
   1.5365160  31.2953854  46.1967087   1.6198701  32.0212936  44.8711538
   4.1004330  65.0490808  29.1697526   3.3466542  65.3257847  29.6907926
   4.4884729  65.8663368  28.8571024 103.5647392  35.2952027  15.5447912
 103.6317444  36.2455726  15.4523861 104.1603565  34.9474406  14.8810577
  92.8329182   1.8143204  80.0919724  92.8612995   2.2495846  79.2399359
  91.9756699   1.3890970  80.1152706 101.3704395  40.7664919   4.2685983
 101.6201782  41.1589098   3.4320161 101.4424992  41.4823484   4.8999402
 111.2450600  80.9940052  30.6017089 112.1948242  81.0338497  30.7139421
 110.9900475  80.1669502  31.0105801  27.0985675  78.8338423  86.5592861
  27.1275759  79.0029430  87.5009823  27.2361898  79.6916914  86.1575508
  82.5423336  35.1956272  70.7043839  83.1377125  35.9330702  70.8382988
  82.8755569  34.5104861  71.2838459  13.9570427  59.7314167  66.0194111
  13.6982989  58.9661264  66.5328455  13.3317840  59.7564316  65.2950764
 107.1956158 101.7933941  29.3873382 107.4586010 102.1393108  28.5344529
 107.8283691 102.1649837  30.0019670  92.7972698  51.0284948  45.2321005
  92.8945446  50.0828409  45.3439140  92.2627449  51.1227274  44.4436646
  54.8944139  73.4131575  90.3760624  55.2512169  74.1716194  90.8382988
  55.4573298  72.6853085  90.6398678  24.2805600  35.5704403  36.7794991
  23.9384437  36.1162853  37.4874830  23.5907793  35.5788112  36.1159015
  92.8414249  31.8900180  44.8526907  92.0062923  31.6019225  45.2211809
  93.1127357  31.1703968  44.2828083  71.0727549  34.9710083  36.2093544
  70.7425594  35.0046396  37.1071672  70.2947617  35.0854301  35.6635833
  90.5838013   0.8458147  88.1816769  90.4840374   0.2563285  88.9291954
  89.9889183   1.5721095  88.3683395  13.8516593  57.8392553  59.4844389
  13.3810544  57.0081806  59.5482922  13.2890713  58.3920145  58.9420509
  96.1110020  28.7796116  13.8857186  96.5575790  28.7610316  13.0392802
  96.2078667  27.8906536  14.2271876  85.7266521  67.3267603  55.9013939
  85.2356625  66.5729380  56.2283707  85.0782299  68.0285788  55.8445501
  15.0735855  35.5387998   9.4834936  14.8843277  36.4354658   9.7599041
  16.0292530  35.4846621   9.4840449 100.5577564  84.8097897  14.3844271
  99.8039341  84.2968750  14.6758115 100.9202957  85.1809311  15.1888239
  84.0037918  87.6329136  19.4011950  84.4426155  87.5113964  18.5592318
  84.7160530  87.7803135  20.0234389  14.9800670  32.0235348   8.0568898
  14.4876289  31.4085674   7.5132442  14.3537080  32.7182293   8.2601267
 105.1181507  73.9939737  12.3602629 104.4618607  73.2972240  12.3527372
 104.6078682  74.8033857  12.3865533  88.5279083  68.3897257  41.1200142
  88.0941677  67.6907063  40.6306553  89.4196129  68.4076738  40.7725048
 105.8701420  15.6189942  63.4746313 105.5236244  16.5112329  63.4664917
 106.6894817  15.6847286  63.9651299  85.1041412  71.8326950  35.0206447
  84.5200348  72.5170040  34.6938729  85.2298069  72.0464182  35.9451771
   7.5874442  48.6177444  69.5574093   8.3697540  48.7786388  69.0298319
   6.8581599  48.8359928  68.9771128  96.9652271  57.3592377  23.7587214
  97.7830315  57.8372955  23.8961649  96.5520668  57.7999449  23.0162215
   1.3294813 107.1731663  88.6876678   2.1742103 106.7798710  88.9067268
   0.8481227 106.4749718  88.2437611  13.8480866  91.1408901  16.5057921
  13.2640052  90.4304600  16.7710602  14.5988095  90.6984806  16.1096609
  10.5054438  25.1659513  69.4732809  10.4863465  25.1686072  68.5162783
   9.8520160  24.5129824  69.7240734   4.8128009  71.5975189  90.5058956
   5.1305634  71.1034155  89.7501755   5.3319776  71.2712288  91.2409019
  99.4508457  54.8728323  82.6504707  99.2066669  54.9251747  81.7264175
 100.2866364  55.3363276  82.7039719  28.7544322  35.8433294  64.4322968
  28.2865834  35.5123377  63.6656189  29.6063900  35.4082298  64.3992805
  94.3625641  59.6973896  81.4688683  94.5880604  60.2810860  80.7445240
  93.8325500  60.2371693  82.0553493  51.5903139 105.0192833  37.6975703
  52.2821999 105.6759644  37.6182437  50.7769346 105.5173397  37.6163673
  93.9993858   2.0536084  14.0478218  94.4638157   1.2187596  13.9881217
  94.4710922   2.6333955  13.4498477  12.9711604  87.9383659  12.5969207
  13.0313492  88.2772732  11.7037511  13.8740349  87.7267933  12.8341663
   3.1515762  95.6172752  74.5926666   2.4475738  95.0506783  74.9082136
   2.9804629  95.7127190  73.6557341  69.0719414   9.1963255  18.3022118
  69.6334696   9.9703360  18.2595110  68.3781719   9.3683195  17.6655495
  67.6257467  71.5117836  24.1204238  67.8103733  71.0870981  24.9581504
  66.9493961  70.9660912  23.7191772  70.1685047   8.2090306  23.0391979
  69.9864483   8.0832142  22.1079302  70.4009867   7.3368502  23.3577633
  50.2387381  31.6361880  22.7134418  49.4140577  31.6832805  23.1970882
  50.8611250  32.1235442  23.2532096  72.2600985  80.0660992  18.9120162
  71.4005136  79.8062563  19.2434156  72.0675707  80.6612587  18.1874859
  76.0757256 105.2078247  14.4487250  76.8320990 105.3246307  15.0236082
  76.2701702 104.4104671  13.9561212  61.6383266  14.5483375   3.1731826
  61.1749744  15.3038526   2.8116122  61.0437775  14.1976118   3.8363090
  15.3769433  63.4549999  55.8548355  16.0484469  63.4124231  56.5356445
  15.7810700  63.9628077  55.1512384  41.6108704  81.8678093   3.1290671
  41.5129232  81.5401077   4.0230754  42.5249767  81.6900349   2.9076129
  76.2335587   4.2621613  23.6459136  75.9797478   3.3662489  23.8676190
  75.4230070   4.6733949  23.3457065 112.6820087  77.9448366  56.0571051
 112.0363045  77.2430229  55.9749556 112.2866249  78.6885214  55.6023121
 104.9011135  18.7352669   1.6042821 104.3464947  17.9554176   1.6258392
 105.2952099  18.7730646   2.4757719  90.4596519  19.4477189  28.4742236
  90.2817345  19.8207080  29.3376207  89.7376823  18.8375795  28.3234954
  92.0041275  24.0638351  28.8159585  91.5558052  24.3267441  29.6197748
  92.9130936  24.3322897  28.9499068  52.5623894  11.3651073   9.0149164
  52.7890062  11.2107837   9.9320090  51.7165995  11.8119872   9.0491295
  40.6689882  93.4164238  49.1351414  40.5061245  94.3536377  49.2415571
  40.2345896  93.1896782  48.3128786  13.4204149  29.8157048  88.3494854
  13.5542905  28.9391255  88.7099266  13.0122221  29.6643734  87.4970150
  11.9704938  93.6112976  76.5593243  12.0273471  94.3225956  75.9213209
  12.0625603  92.8139019  76.0378647  94.6681023  49.0915966  14.8170578
  93.8766479  49.5949221  15.0080967  94.8675728  49.2964840  13.9035678
  25.9851313  80.5724239  15.6599247  26.4730000  79.7831154  15.8948803
  25.9062099  81.0584450  16.4807701 110.7668304  40.3701115  62.9013634
 110.0893784  40.3172159  62.2272062 111.5806866  40.4966688  62.4136639
  85.0832653  29.9778438   8.1579387  84.5548820  29.8986602   7.3637211
  85.8928013  29.5092368   7.9547524  88.0606174  38.1725335  12.6169169
  88.5537815  38.9775920  12.4591208  88.7159061  37.4765801  12.5671232
 108.7279797  75.5299997  81.7959690 109.4305515  75.6304789  81.1536789
 108.3803940  74.6527004  81.6354561  12.9714608  61.8367434  67.5329876
  12.1451974  61.3564539  67.4796534  13.6392081  61.1909676  67.3020792
  37.1796751  74.1220665  38.4856081  37.8939700  73.5811615  38.8224077
  36.4589429  73.9756155  39.0982461  92.3960400  18.9389956  24.2481446
  93.1809998  19.2481375  23.7959290  91.6727352  19.3750954  23.7977195
  35.4242969  81.1208439   5.2106977  35.4137659  80.7694340   4.3203992
  35.9595966  80.5012226   5.7064444  65.8399582  29.4116282  20.2992845
  65.4842043  30.0701594  19.7026229  65.9760857  29.8821473  21.1216688
 106.2910461  73.1537724  60.6797028 105.8272266  73.9414644  60.9636831
 105.6299210  72.6411152  60.2145815  21.4771056  46.5235376  81.6143513
  21.6414547  46.8716955  82.4907112  20.6184578  46.8724489  81.3751602
  22.1078730  89.1433620  88.9911652  22.8887677  89.6648121  89.1769886
  22.3570919  88.2483673  89.2216015  69.0183306  35.2098846  24.9966908
  69.5166731  35.7096410  24.3500614  68.8400364  34.3732285  24.5672131
  32.5368166  59.8256111  67.0258236  32.9882765  59.8731089  67.8685331
  33.1580186  60.1979971  66.3999939 102.4959469  30.0505805  46.0051727
 102.6777363  29.3230152  45.4103327 102.9232883  30.8046126  45.5989122
  22.1128345 103.2417488  17.1000707  21.9167089 102.3533726  17.3976552
  21.6327882 103.8081551  17.7041948 114.2203522  81.7741966  26.2961793
 113.6347675  81.2228584  26.8151641 113.6387062  82.2487450  25.7022762
   1.3048393  86.8033314   9.4091451   0.8207440  87.3043537  10.0655472
   0.6426296  86.2520027   8.9923185  14.5568049  57.6144075  75.5429220
  13.8520765  57.2314835  75.0204659  15.0868332  56.8654776  75.8157015
  78.9574480  33.0068636   1.8463631  79.4178009  33.0976248   1.0120548
  78.1343317  33.4783554   1.7182697  57.7396965  11.2561774   1.7649677
  57.5552225  10.7716703   0.9603229  57.8180027  10.5807185   2.4386564
  56.3367796  35.3768921  13.0539215  57.0448112  34.7420406  13.1629419
  55.5394983  34.8806477  13.2391691  93.4095192  36.0448909  86.8190575
  92.5435638  35.8064747  86.4881325  93.7402058  36.6829681  86.1868095
  17.6079249  81.1449909   8.1636417  18.1954110  81.8384361   7.8632742
  16.9553971  81.0657978   7.4678195  77.1538258  14.2186081   9.1809040
  77.1511459  14.7219014   8.3667046  77.3979807  13.3324242   8.9138889
  15.4611170 101.1052608  13.5561979  16.2474918 101.1084461  13.0104542
  14.9625731 100.3462791  13.2534945 101.9195461  32.6845384  90.9317398
 102.1070576  31.8616939  91.3834000 102.7101707  32.8639984  90.4228687
  36.3178563  78.7689114  15.4124141  35.8579755  78.0387974  15.8267426
  35.6745100  79.4774199  15.3935111  34.1366768  29.2171931  80.6538582
  34.1197801  28.3017802  80.9330845  33.6712813  29.6872640  81.3457203
  52.4904633  96.9447708   8.0526239  51.6782856  97.0065498   7.5498486
  52.2245216  96.5695667   8.8921082  88.7712288  63.6498737  70.3893232
  88.9986801  62.7440405  70.1796484  89.4950104  63.9585304  70.9344006
  77.9621315  21.8950415   4.8451638  78.8913250  21.7673945   4.6540290
  77.9120588  21.8952775   5.8010530 113.6850548  94.5553303  70.5986738
 112.8787327  94.2489624  70.1836824 114.2756271  94.7389507  69.8681021
  20.0904894  74.7927284  92.2838879  19.3701077  74.9358416  92.8977299
  20.7113123  74.2467308  92.7662754  81.4651203   3.7644267  38.6004782
  80.9402943   3.8925079  37.8103018  82.0365620   3.0255508  38.3913040
  60.6664085   6.9636488   8.6787313  59.7877502   7.3413783   8.7175858
  60.7121849   6.3849044   9.4397777  86.4889336 106.4545441  20.5307603
  86.9966984 105.6945229  20.8149767  86.9330883 107.2023773  20.9304023
 104.7346973 101.4516735  83.1122684 104.2985535 102.1340656  82.6020241
 104.6045589 101.7139530  84.0235901   7.1399403  40.2541876  56.0637808
   6.8376911  40.5839586  56.9100237   6.3391048  39.9960470  55.6074286
  79.9266052  39.7792482  25.1079464  80.5695343  40.0368357  24.4472408
  80.3424454  39.9934125  25.9430790  24.7412610  97.1469784  50.5273914
  25.6242156  97.5165462  50.5207872  24.3459678  97.4564838  49.7124195
  31.1905074   2.9787886   1.9560166  30.9152126   2.0729995   1.8146305
  31.6338801   2.9647422   2.8042230  11.5967321  80.6726456  84.8193169
  12.2100782  80.5543613  85.5446053  10.7354677  80.7003689  85.2360725
  27.5186205  59.5513916  84.1235065  27.3621464  60.2518559  83.4901810
  26.8204069  59.6529675  84.7703552  95.0152111  77.4216843  84.9665356
  95.5990219  78.1757832  85.0486279  95.4060841  76.8905926  84.2727089
  17.9954684 100.8379745  70.4883099  18.4112668  99.9758053  70.4884100
  17.5897431 100.9083176  71.3524151  57.7456236  16.1010003  20.5796242
  57.2564697  15.5312538  21.1732125  58.0420685  16.8243599  21.1319876
  69.9708462  29.2430544  14.2304933  69.2981911  29.2606831  13.5497177
  70.3720999  30.1112962  14.1932726  27.2219515  90.7240677  77.9922915
  27.7848577  90.0893402  78.4355736  27.4373174  90.6283474  77.0645618
  56.1462975 103.2241249  13.3278549  56.9168949 103.6383247  13.7162364
  56.4863110 102.4369621  12.9024267  23.0125260  41.0332441  62.7728605
  23.4684682  41.8584633  62.9382992  22.1252108  41.2949514  62.5270748
  21.4613891  72.0918798  61.5469313  21.1270046  72.0458555  62.4426413
  21.1425042  71.2910271  61.1307812  18.3688617  28.6851430  27.3116970
  18.8369536  28.3819890  26.5337372  18.6360443  29.5989084  27.4110794
  76.9081593  34.7174406   1.5266658  76.5715599  34.7456121   0.6310430
  77.2846317  35.5859971   1.6684762  79.7241640  37.4215412   4.0916944
  80.0170040  37.9176235   4.8561394  78.9959717  36.8910384   4.4150132
 108.9647198  31.8781590  36.6124988 108.3251476  32.4996996  36.2648273
 109.7674084  32.3902678  36.7108250  39.4714117  89.0495968   6.4005077
  39.6624565  88.2501411   5.9099805  40.3243637  89.4675446   6.5189183
  57.0857573  21.2444592  22.6558805  57.4136639  21.5409088  23.5048962
  57.1345854  22.0195580  22.0963526  67.2512865   6.1696416  56.8270588
  67.8108740   5.7947904  56.1469221  67.7215815   6.0016620  57.6436567
  33.5327697  68.0835009  57.9012012  34.4199109  68.0362558  58.2575417
  33.6217690  68.6086321  57.1058702   4.5416349  63.8590717  89.7113419
   3.9399019  63.6585855  88.9944363   5.3595155  63.4267664  89.4655514
  16.1167574  55.1521540  75.9287500  16.9129717  54.7715950  75.5580044
  16.2162673  55.0415945  76.8743229  93.3741093  34.5935249  21.1995769
  92.8797913  34.4035506  21.9969440  93.9755249  33.8544106  21.1087966
 106.0787010   9.6944249   2.2448215 105.1862335  10.0113344   2.3837338
 106.5240860   9.8611450   3.0755264  35.0024796  65.1624775  55.0477171
  34.8686290  64.9638891  54.1209602  35.4834247  64.4077778  55.3873539
  60.2504253  95.0099087  13.6540329  59.8823166  95.8853722  13.5344231
  61.1912727  95.1569080  13.7511277   7.3859555  70.5649137  53.6740160
   7.2213387  71.1721992  54.3953609   8.0604321  70.9948158  53.1481838
   5.1472288  89.3424225  82.8533173   4.8472339  89.5344353  81.9648552
   4.3533170  89.0904999  83.3249855  98.1541252  12.7844906  34.0575600
  98.0854702  11.9594765  33.5770702  98.6543369  13.3585703  33.4775114
  91.5102482  12.5142539   3.7563345  92.0026398  11.8502951   3.2737002
  90.8837795  12.8579283   3.1194222  65.9641266  27.3738647   0.1134559
  66.2559891  26.5892363   0.5775734  65.6651592  27.9640388   0.8052272
  62.9867029  22.4686027  18.1253183  62.6660633  22.8963995  17.3313355
  62.2471333  21.9423676  18.4292018  84.4131947  59.1960526  15.9438694
  84.8285007  58.3796883  16.2219083  85.1128674  59.6854734  15.5112445
  67.5620508  23.9862728  72.1371412  66.7460680  24.3757439  71.8229532
  68.2330704  24.6369219  71.9306850  27.4934030  66.6659117  85.7226372
  27.8692913  66.6519165  84.8424435  28.2313228  66.4738989  86.3012791
  50.6461000  41.9497585  17.4194741  50.5913401  41.5150785  16.5684223
  50.0373173  42.6853514  17.3523235 110.1653671  64.0969706  82.4953270
 110.5499077  63.7028646  81.7123604 110.8613873  64.6486807  82.8522778
 105.6649494   1.6374606  11.2182486 106.2057590   2.3874487  10.9707212
 105.5798912   1.7069341  12.1691275  91.3919640  64.1884708  92.0160389
  91.8537617  64.0231085  91.1940765  90.8039761  64.9173594  91.8179798
 101.3276005 104.3835926  84.1751194 100.5673313 104.5397663  83.6149120
 101.8609142 105.1728153  84.0806103  93.7672138   4.2276528  15.7725525
  93.6685658   3.4338760  15.2467990  94.4173908   3.9963260  16.4358675
  96.9862843  83.9172077  84.3303204  97.6268959  83.5963345  83.6955929
  96.1567020  83.5310268  84.0494728  84.4493294  37.0427966   8.7217158
  85.3339005  37.2118378   8.3973885  84.1689491  36.2561750   8.2539058
  40.6817245  83.6772156  56.9125462  40.7004642  84.5897770  57.2008371
  39.8306227  83.3510876  57.2049570  59.6634150  78.4072685  59.4939661
  59.2849493  78.6980677  60.3236866  59.1537142  78.8643122  58.8249779
  19.0547538  83.9669609  91.3190079  19.1625977  83.0158997  91.3282394
  19.5809042  84.2748451  92.0569897  36.1452413  83.6637020   6.2323636
  36.0261202  82.7647114   5.9260201  36.3561511  84.1602230   5.4416543
  85.9279060  41.0203218   2.8915492  86.3243580  40.3807545   2.2999370
  85.0182247  40.7352209   2.9776794  77.7350998  16.0578394  26.2671471
  77.6652336  15.6911540  25.3857327  78.5528994  16.5551317  26.2555456
  99.5806599  28.1218743  36.0747457  98.7951565  28.6084890  36.3246083
 100.3027153  28.6188459  36.4592910  16.7418516  89.5529652  38.0332422
  17.0261848  90.4603100  38.1432843  17.4860859  89.0307617  38.3326554
  29.0855980  95.3607845  75.1371384  29.8954463  94.8505116  75.1374006
  28.5829425  95.0119400  74.4010162  21.4308929  95.1304150  77.6833487
  20.6856465  95.6997395  77.4917364  21.4444327  95.0668621  78.6383390
  66.7096281   4.2200983   4.1332090  66.9087791   4.4063586   5.0507480
  66.0374260   4.8601508   3.8993141  59.9664068  49.0844774  31.1270285
  60.4135466  48.8458204  30.3150272  59.2536545  49.6592236  30.8479595
  71.0645199  53.1316137   6.5898788  71.9586802  53.4378529   6.7412966
  71.0983467  52.7083969   5.7319897 109.5596600  55.1780844  61.7735195
 109.4792557  56.1263704  61.8760538 109.6419811  54.8466158  62.6677132
 108.9760399  70.3036642  84.3087769 108.8700294  70.8437967  85.0918770
 108.0830193  70.1537704  83.9985180 110.2586842  28.4577632   9.9182111
 110.9528923  28.4454346   9.2593038 110.5885029  29.0398788  10.6027484
  58.1604242   3.4149086  43.5362053  58.2915258   3.5574806  42.5988054
  57.2349405   3.6115715  43.6812496  82.9348087  20.5420280   1.1808500
  82.8085518  19.7300196   0.6899993  83.8744736  20.7143593   1.1211325
  81.1800575  10.9926820   4.1985476  80.2407360  11.1176848   4.0633550
  81.5442944  10.9400177   3.3149248  99.9015999  35.1329660  18.6630881
  99.7960472  34.2048717  18.8722134 100.3016376  35.1385546  17.7935076
  84.2911148  36.8694735  11.6151321  83.3390331  36.8553376  11.7129517
  84.4350147  37.1572781  10.7136381  91.6697788  14.3037975  14.9761236
  91.8215179  14.3355680  15.9206867  90.8991623  14.8547018  14.8386717
  20.8016753  48.3451653  85.9462547  21.3073301  48.6147642  86.7129707
  19.9268854  48.7026596  86.0984612  80.1056099  17.4526608  26.1141944
  80.8883762  16.9944966  26.4201236  80.3180981  18.3809137  26.2113023
 107.3851871  67.2154140  22.4039483 106.7707253  67.9493523  22.4067402
 108.2432938  67.6209879  22.5279975  54.6367550  23.4920526   4.2475522
  54.1689205  23.3887005   3.4188887  55.3507519  24.0967774   4.0456972
 106.7419529  90.1899815  83.6121368 107.3534489  89.6074963  83.1615639
 105.8779430  89.8264408  83.4183311  52.0712566 105.2787018   2.2663310
  51.7886686 105.6855488   1.4472800  52.6401901 105.9315205   2.6742259
  74.5253134   1.8297502   1.6670483  75.4043722   1.9297296   2.0324123
  73.9422083   2.1521233   2.3542866  33.2968283  80.1228333   6.3177568
  33.7101269  80.1664162   7.1800303  33.9519262  80.4825592   5.7196975
  92.6123142  46.5679836  78.7349033  92.5806904  46.5083122  79.6897173
  92.4976063  47.4999714  78.5492373 114.0281200  72.8202772  82.8698444
 113.5387039  72.0419216  83.1360435 113.7480259  73.5004282  83.4823513
  63.2171679  49.9858332   6.5458471  63.6275196  49.8314428   5.6949615
  63.6016750  50.8073378   6.8516588  98.6280251  50.0119591   2.3471966
  99.4640732  49.7969198   1.9336620  98.8697147  50.4049158   3.1858858
  15.2301109  68.1032705  90.1468182  15.3734994  67.4714184  89.4422340
  15.9820104  68.6934328  90.0959778 109.5255089  75.8133459  84.3864155
 110.0668335  76.5461159  84.6800900 109.3372250  76.0075617  83.4682274
   7.6366276  53.3613348  70.3655386   8.3597195  52.7383518  70.2930260
   6.8660653  52.8676081  70.0850010  78.5374308  29.4479156  24.7234416
  78.1791878  30.1630402  24.1976190  77.9215717  28.7260818  24.5973277
   7.4946958  89.4199848  92.3789024   8.1770724  89.1768169  91.7532349
   6.9689733  88.6265373  92.4803448  11.2251246  40.4883385  11.9712532
  10.6277263  39.8049903  11.6673005  11.2122679  41.1448574  11.2748003
 106.9699764  92.9423809  82.8423214 107.1186829  92.1800518  83.4017658
 107.2058105  92.6443958  81.9637871  86.8536186  26.8614841   2.5782123
  85.9837437  27.0476246   2.2247961  87.3549557  27.6601076   2.4135919
  82.5889301  61.0256290  17.3175395  81.9520378  61.2081242  16.6266751
  83.2545948  60.4845905  16.8928039  73.5002995  98.0753899   6.0581744
  73.5046148  98.2569695   5.1183659  73.5766649  97.1231461   6.1184841
  31.3192582  47.8800869  88.7377262  31.5707397  48.6664248  88.2533073
  31.8521929  47.9076242  89.5323658  18.2953751  84.1003323  80.0423622
  18.5389793  83.7593555  80.9029579  18.3088791  83.3342552  79.4686174
  91.4769363  43.5597181   0.4248231  91.2957764  43.3289337   1.3359484
  91.6847420  42.7258348   0.0032934  23.0738807  72.1340561  83.7656116
  23.7762904  71.5489292  83.4819221  23.0554509  72.0419168  84.7181797
  68.8732862  23.0226994  59.6697092  68.2088518  23.6785674  59.4585228
  69.5291328  23.5009170  60.1770592  75.6567144  23.7738562   9.4054091
  76.5263033  24.1330910   9.5814687  75.0566149  24.3663883   9.8582017
  29.6831131 101.2354565  54.7455215  29.8233819 102.1461010  55.0048971
  28.7792826 101.0502815  55.0005388  73.2061434  36.9704509   6.5929365
  72.9823971  36.9147229   5.6639242  72.3630905  37.0595026   7.0374173
   7.2016144  71.5007448  81.8825817   6.4763588  70.8763170  81.8646049
   6.8850106  72.2501421  81.3782024  84.4283962  19.2997777  14.5634007
  85.1504135  19.1289175  13.9586449  84.8001957  19.1414428  15.4311168
  91.3696289   8.8067949  67.0261145  92.1917820   8.9136666  66.5477037
  91.6040421   8.9575219  67.9418421  19.4332016  55.3904247  92.9739952
  19.2077482  56.0764837  92.3457146  19.0237427  54.5998287  92.6225281
  57.9555655  99.4566727  26.5810800  57.5472498  98.6759853  26.2068629
  58.6600828  99.1172695  27.1330714  26.9299698  54.2663765  18.8525856
  27.3417902  53.5940742  19.3953967  26.8215179  55.0147629  19.4394314
  59.0400076   5.6186604  67.6671171  58.4260273   5.5065477  68.3928490
  59.8957443   5.4128200  68.0433798  60.7173491  34.4898105  14.3665445
  60.8003283  35.4430461  14.3403494  59.9488544  34.3013978  13.8278890
 101.5826511  35.8414340   6.9627434 102.0028877  36.2060452   6.1838400
 101.6895390  36.5179467   7.6314282  62.4704027  10.1665342  13.5792780
  61.5980053   9.8034507  13.7319851  62.5735378  10.8350170  14.2565703
  38.3876896  49.6407843  87.9537296  37.6066041  50.1820993  88.0682468
  38.6958742  49.8485565  87.0716381  95.4266453  18.8984895   8.1503916
  95.1952839  18.5275567   9.0019280  96.1264992  18.3324623   7.8247458
 100.8315659  30.4958701  17.5286758 100.3137016  29.7844195  17.9053533
 100.2840233  31.2735987  17.6361930   0.2041193 106.2402630  78.6005688
   0.1847642 106.9705772  77.9821062   0.4358983 106.6417027  79.4380426
  20.6808233  48.7905884  45.7705212  21.3567138  49.3635607  45.4084349
  20.3186250  48.3368063  45.0095224 103.2703590  64.8076963   0.5257115
 103.0657482  63.8765812   0.4397442 103.9163685  64.8468447   1.2309548
  65.6990862  20.2448535   2.9750824  64.8833990  20.2216172   3.4754288
  65.4952765  19.7808194   2.1630690  46.2889147  18.1883240   3.2813883
  47.1333170  18.4036338   2.8853282  46.2825251  18.6700642   4.1085023
  74.1092157  30.3066802  69.6049213  73.9632940  30.9121799  68.8780689
  74.8164082  29.7364545  69.3033361  95.7566071  52.7093458  21.2296176
  96.0058498  51.9153690  20.7566285  96.5406227  52.9502201  21.7231131
  94.4431114  61.6338491  66.4076853  94.5228767  61.0450840  65.6572008
  93.6211681  61.3782120  66.8263674  34.8998141  39.4196296  12.9454315
  34.4578171  39.4352150  12.0965338  34.7629118  40.2969646  13.3028901
  15.0867879  42.4231434  83.5332680  15.8757675  42.3797798  82.9930210
  14.6822345  41.5611076  83.4360123  99.5440578   3.8564408  74.2429590
  99.2089272   3.6612105  73.3678532  98.8813114   3.5045511  74.8372412
 104.5675182  95.2211666  91.9754601 105.2556705  94.9959183  92.6015091
 104.8580456  96.0462379  91.5867615  84.6143150  76.3900423  21.3470387
  85.2835846  76.7682266  20.7767081  83.8989735  77.0258617  21.3311839
  82.5238609  10.5033648  64.1206121  82.1028996   9.9231344  64.7549248
  82.5913334   9.9779588  63.3233500  67.1371317  13.8116503  84.3242073
  67.4333572  13.3842373  83.5205936  67.5370932  14.6807826  84.2946720
   3.3474594  36.9409180   1.8435502   3.4634140  36.9808149   0.8942376
   4.0319815  37.5116968   2.1926516  18.9436936 106.1496449  79.7169209
  18.3365870 106.7378044  79.2677832  18.5396409 105.9947872  80.5707359
  41.8853045   4.1158834  82.2916317  42.2714710   4.9410877  81.9981289
  41.0084105   4.3551433  82.5917053  72.5176334  32.9132819  16.5235174
  72.1803856  33.4361839  15.7961452  72.7902603  32.0892596  16.1199200
  30.1896358  92.7263165  72.3723745  30.9361625  92.1417713  72.2410727
  29.4718194  92.3087120  71.8963718 111.9896603  82.7662373  88.8920879
 112.7902412  82.6497078  88.3804989 111.3263321  83.0102825  88.2465935
  97.0382690  53.9806271  11.6017365  97.4143505  54.4274187  10.8433342
  97.7801228  53.5322666  12.0077634  92.9312038 107.1909618   9.1830283
  92.6489258 108.0615139   8.9025187  93.0368710 106.6994190   8.3685029
 110.3315353  31.9927645  20.3090978 110.4404926  31.1120248  20.6677866
 110.6561089  32.5734997  20.9973049  27.4768281  47.1085358  10.0829971
  28.3417702  47.5184822  10.0759161  26.9165325  47.7392721  10.5351913
 113.5998684  49.9080563  30.0644374 113.1175286  49.8837137  30.8908677
 114.5205704  49.8684168  30.3232193 109.7912502  38.4294200  16.8654525
 109.4016552  38.7449074  16.0500288 110.5693340  38.9738488  16.9854903
  85.3294086  20.7906413  24.7035837  84.8282814  20.4174948  25.4287505
  86.1839485  20.3627992  24.7578096  19.0565109 103.8617897  65.2304888
  19.7731960 103.5496807  65.7829189  19.3439686 104.7237968  64.9295616
  81.1104393  21.1185408   3.1774431  81.8889427  21.1738253   2.6232803
  80.8314991  20.2055073   3.1081969 102.0307159  19.4045627  30.5701399
 102.2948647  18.6153769  31.0430527 101.1007786  19.2730618  30.3853202
 111.8108463  50.2667952   4.6993670 111.6669750  50.3510857   3.7568024
 112.3775101  49.5004082   4.7875676 113.3268356  10.7029843  29.2169094
 112.5074482  10.3216887  29.5322561 113.0541611  11.3635266  28.5800695
  22.5518322  68.2727194  72.4364328  23.3205080  67.7099800  72.3431778
  22.4969840  68.7430573  71.6045666  86.4248371  81.7724705  61.7579269
  86.0589504  80.9360123  61.4703655  85.9535408  81.9748688  62.5661039
  80.5584717   6.6165346   1.9360426  80.7780170   7.3435569   1.3534027
  80.5862427   5.8422947   1.3738923  32.4123907  81.0861301  74.8756933
  32.6278043  81.9461536  74.5148659  31.6255975  80.8175850  74.4012737
  20.5205035 102.0018864  71.3837004  21.0957026 102.5905418  71.8724394
  20.7324815 101.1295414  71.7158222 104.2344666  57.2858334  80.2109241
 104.9277115  57.5164986  79.5925188 104.6241760  56.6110706  80.7668400
  79.6384621  39.0609622   6.5162337  80.2695465  38.4687543   6.9252014
  79.2755079  39.5645070   7.2448885  25.6117105  37.7965045  67.8509045
  25.4026055  37.2330213  67.1059275  26.5599585  37.9172492  67.8011608
  27.1637058  99.3519211  85.9747791  27.1220756  98.7627983  85.2214909
  26.9647670  98.7938404  86.7265797   8.1629109  79.1735840  79.9613190
   8.4535223  78.4552050  79.3994427   8.3886492  78.8908958  80.8475304
   8.5808748  44.1700745  -0.1049402   8.4154201  44.0939188   0.8347706
   8.2954466  45.0562429  -0.3273483  13.1242931  71.7885399  79.5034456
  12.3855162  71.8843126  80.1045036  13.8325667  72.2849846  79.9134779
   5.0148386  32.1351457   5.9722531   4.9479604  31.7167902   5.1139188
   5.9230804  32.4329877   6.0234165  93.4088326  39.6262598  10.0395811
  92.9856205  39.0538692  10.6794965  94.0202332  40.1517010  10.5556643
  74.4188547  29.4461346  18.3544791  75.3535986  29.3400550  18.1777489
  74.3844557  29.9163532  19.1875100 109.0101910  72.5945425  81.9679832
 109.2737484  72.7360725  82.8772354 109.5358181  71.8483496  81.6796398
  27.3813272  95.4605007  56.2084913  28.0981541  95.8161259  55.6832123
  27.5847125  94.5288658  56.2917519   8.5472810  70.4520512  47.0291471
   9.0818536  69.7945213  46.5840435   8.6368531  70.2439833  47.9591560
  80.2998257  36.0185838   8.2351613  79.4942856  35.5359149   8.4205568
  80.9943199  35.4804230   8.6150235 112.3352814  81.9971180   2.7281082
 111.4384079  82.2907829   2.8881517 112.6329041  81.6639996   3.5746804
  93.9233780  28.6493087  21.9787407  93.4651470  29.3583226  21.5275741
  93.6843586  27.8611279  21.4910197   7.3339659  73.1208706  78.1241179
   7.5674272  72.1947670  78.1878090   6.8080032  73.2895947  78.9058685
  84.5161438  49.1075420   4.7720888  84.1724110  48.6959314   5.5649638
  84.0201187  48.7053013   4.0590739  26.1539078  24.0339518   8.2665437
  25.3531885  24.3531656   8.6826950  26.3543320  23.2188058   8.7265414
  81.3668346  83.1759453  78.1496382  81.0430336  83.2996178  77.2574043
  80.8808517  83.8144970  78.6714697 107.9887104  59.0039873   4.6169803
 107.9751968  58.7231159   3.7020153 108.7436771  59.5893908   4.6766949
 103.2132435  11.5584326  19.0387535 103.2777691  12.4888289  18.8232744
 102.4172211  11.4892936  19.5658183  52.8213024  25.5602741  70.4688358
  52.5450516  26.4543486  70.6701946  53.2263947  25.2468944  71.2774897
 109.2021084  38.9539623   6.6465425 109.9146652  38.9790392   6.0079014
 108.4419060  38.6581254   6.1457270  86.7886925  77.9728365   6.4228922
  86.6630936  78.7236834   7.0031351  86.9251919  78.3589268   5.5577147
  78.5907602  14.4148445  38.3930898  78.7323523  13.4749913  38.5064912
  77.7284670  14.4793379  37.9825783  14.3270135  86.3713455  73.6781788
  14.7227085  87.2269154  73.8444853  14.6582758  85.8133888  74.3818760
  34.0685296  94.8349762  92.0232677  33.6971617  95.6478214  92.3661900
  33.8292146  94.8345852  91.0964680  39.6095777 102.9307270  59.8393059
  40.2283144 103.5287762  60.2585077  38.9532065 103.5039902  59.4433546
   8.7789410  37.6686525  42.1320486   7.8787750  37.8525114  41.8634796
   9.0298367  38.4249091  42.6624823  61.9161081   8.4649992  55.3995323
  61.8929386   7.5109231  55.4732466  62.5601006   8.6365718  54.7124624
  41.4361477  91.9852829  62.7335978  41.0596275  92.8635693  62.6780891
  41.9818306  92.0078659  63.5196972  43.6844397  27.7962446  77.4792147
  43.0556917  27.4863577  78.1310368  43.6982918  28.7465978  77.5926638
  35.6931090  90.7258987  88.8530350  34.8308992  90.8830261  88.4681511
  36.1119962  90.1051140  88.2568836  48.6702442  32.7377939  84.8311329
  49.2321920  31.9765759  84.9760246  48.4178257  32.6772547  83.9097977
  34.4788790   5.8624870  84.5131016  33.9413166   6.1286956  83.7671852
  34.3229103   4.9218264  84.5971489  64.2535067   2.6283506  72.7807665
  64.2338276   3.3596879  73.3980083  64.8627090   2.0017283  73.1712103
  13.1011188  21.3314795  16.1818302  12.1814167  21.1020899  16.3150930
  13.4763658  21.3379788  17.0623863  27.3454785  78.0416393  79.7400856
  26.5073228  78.4994268  79.8045731  27.8035450  78.4804821  79.0232706
  69.2604160  44.1504908  14.3387341  69.4006157  45.0373745  14.6704149
  68.3097839  44.0722036  14.2586851  38.0809569   4.1336671  91.4899826
  38.0732179   4.5043477  92.3724556  38.9841557   3.8448423  91.3594341
  59.5009136   3.3288360  91.9569683  59.0439510   3.8115630  92.6457310
  59.2954779   3.8062903  91.1531830  34.6660280   8.2965660  88.1192112
  35.5333471   7.8930533  88.1533337  34.0999770   7.6882273  88.5943317
  59.3597794  10.6933081  74.7600222  59.5180845  11.5384245  74.3393660
  59.6213388  10.0467324  74.1044617  96.5479851  36.5760589  12.0836151
  97.1242428  37.1460605  11.5744436  95.8345604  36.3590240  11.4834905
  76.6286755  30.6531549   4.6190375  77.1796322  31.2715769   4.1392115
  77.2470808  30.0412679   5.0182897   0.9935386  45.3546333  22.6439190
   1.4994870  45.4982710  23.4436798   0.1141468  45.6664896  22.8575730
 113.4328842 100.6031132  92.0384598 113.2715225 101.4747334  91.6772556
 114.1565323 100.2574825  91.5158653 113.8075060  86.5301228  88.0537510
 113.6592125  85.9508610  87.3062897 113.1171776  86.3001251  88.6756611
  81.0195637  41.9600582   0.5804943  81.8665695  41.5542841   0.3956472
  80.8456230  41.7445850   1.4967617  73.7278032  95.1213741   5.4206783
  73.8463688  94.1871166   5.5919683  72.7869844  95.2206516   5.2749580
  89.4970131  35.4746437  20.7770681  89.6868801  35.6722546  21.6942000
  89.4892788  36.3285899  20.3446960  75.2959442  60.4417706  14.4785035
  76.2379026  60.6069851  14.4378209  75.1943016  59.8085928  15.1891279
 109.9202728  43.4125090  57.1534014 109.0135002  43.2138157  57.3868942
 110.1761723  42.7042007  56.5626049  47.8564262 101.0522461  77.2886801
  47.6502180 100.9875584  76.3561964  48.6624146 101.5676117  77.3205519
 100.6223583  58.0938435  37.9827881 101.4707851  57.6695633  38.1108046
  99.9871826  57.4702501  38.3348060 107.2269154  46.4573336   3.9260909
 108.0712700  46.8682814   3.7405291 107.4218178  45.8011007   4.5951235
  88.6175537  17.9359496  88.1540680  89.4723892  18.0828202  87.7492046
  88.4763622  16.9921350  88.0798435  83.7600708  48.4750175  11.4482749
  83.2803154  49.3032074  11.4611256  83.1869221  47.8591013  11.9047666
  54.3361425 106.8656254   3.1613514  54.9721909 106.2375927   2.8189394
  54.8166227 107.3520470   3.8312435   8.0325311  57.0051813  10.1178706
   7.7859640  56.1978006   9.6666843   7.8635544  57.6977205   9.4790679
  20.3396440   2.0045757  86.4472675  20.5657601   2.9049769  86.6804695
  20.6466770   1.9062740  85.5459976  67.7751875  80.1119709  49.2749739
  67.2814369  80.5943680  49.9380970  67.3005867  80.2721977  48.4593058
  28.0962706  19.7199678  21.8636131  28.9399242  19.4780457  21.4815760
  27.5160289  18.9910698  21.6439319  20.9173870  61.1811924  92.8503323
  21.0369253  61.5576649  91.9784355  21.3059735  61.8237019  93.4439754
   3.7400264  95.9992123  82.2816372   4.2652529  96.7987919  82.3140144
   3.8435012  95.6808281  81.3848972  89.0620041  59.4487858  15.7347322
  89.7065735  58.7757254  15.5162060  88.2347012  59.1073370  15.3952897
  20.0376606 106.8486881  58.9680099  19.7672987 107.4734592  59.6409082
  19.5841146 107.1381283  58.1763363  81.2727547  41.3521910  33.4406281
  80.8004093  42.1154261  33.7731838  81.3759136  41.5235233  32.5045538
  82.2690201   1.3956624  88.8787079  82.6848125   1.0358401  89.6622086
  82.0916939   0.6320162  88.3294964  22.7439976  18.6087453   7.1073914
  21.8741846  18.9421165   6.8871129  22.6499367  18.2618129   7.9945344
  93.7700748  70.8906507   2.9750025  93.2446289  70.0912094   3.0071977
  94.2250729  70.8445072   2.1341254  98.4360790  34.6101546  12.7170789
  98.1267071  34.2344141  11.8928599  97.9265881  35.4139233  12.8200555
  82.2573853  31.7206383  15.8201611  82.2641659  31.5484977  14.8785913
  82.3787212  32.6674366  15.8914280   3.2692313  58.2835484  16.9376135
   3.9062914  57.5743866  17.0240748   2.8256348  58.3116913  17.7853525
  28.3796859  90.5682278  88.6490726  28.6435962  90.8091164  89.5370865
  28.4879971  91.3719845  88.1406784  91.7654800  30.3133941  67.5867510
  91.0278225  30.1328397  68.1694174  91.4840317  31.0691571  67.0711565
 106.0582733   6.4976102   2.7543327 105.2955437   7.0332086   2.5361523
 105.9258175   5.6832498   2.2690451  42.3466539  95.9756088  88.3977413
  41.7878675  96.7517567  88.3580303  42.9811907  96.1723137  89.0868759
  87.9010868  33.4806013  20.0626445  87.1593285  33.6299753  20.6489086
  88.3767605  34.3112421  20.0617933  87.5959206  54.4468117  29.4031453
  88.1626606  55.2136326  29.3193030  88.1027603  53.8311291  29.9325585
 110.8414364  29.5895624   5.3999716 111.3388824  29.6694708   6.2138474
 111.4649582  29.8275614   4.7138143  82.1483994  52.6127672  18.7242556
  82.3383713  52.6310587  19.6622372  81.8299675  53.4936619  18.5271478
  26.7718744  91.3494492  82.1971416  26.0583329  91.4569855  81.5682316
  26.7494154  92.1484280  82.7237797   9.2297447  53.3700705  19.8356879
   9.5245302  52.8312397  19.1015267   9.6701723  54.2103004  19.7081280
  69.7855520  47.1049833   8.7331402  68.9405489  47.5542402   8.7138546
  69.8460817  46.6719723   7.8816307  97.8651142  26.8199444  31.6617513
  98.7116909  26.7635965  32.1048784  98.0838680  26.8509030  30.7303977
   7.7493101  23.0865407   5.8306789   7.3945463  22.8991175   6.6997284
   7.5858366  24.0208077   5.7016295   5.4819417  86.4315033  75.6158733
   5.2584755  86.4045429  76.5462351   4.6847728  86.7426491  75.1869917
  13.5628152  20.0679779  21.6721797  14.4316101  19.9632764  22.0600772
  12.9565763  19.8501897  22.3801851  11.8786490  26.8690872  15.4940665
  11.7613888  26.2889647  16.2463570  12.3207152  26.3272834  14.8404157
  28.1910729  88.9617538  79.9231529  28.8470387  88.2918644  79.7303104
  27.9470587  88.8025761  80.8349323  67.4111938  25.2107310  36.5313196
  67.7488852  25.3653240  37.4135327  66.8878126  25.9879041  36.3355994
  78.3863354  76.5466499   7.8703284  79.2786646  76.8581486   7.7188373
  78.0508518  77.1106005   8.5672069  17.9667842  76.7298412  53.3194542
  18.5594749  77.4629688  53.4851980  17.5057960  76.6023588  54.1485929
 104.7312832  61.1364937  14.7577381 104.5259571  60.5175161  14.0570664
 104.0162754  61.0332298  15.3856933  92.0792103   1.1779650  86.0029793
  92.1687794   2.1308717  86.0163498  91.4970207   0.9817970  86.7370224
  38.5587835  93.8580227  68.1308460  38.2398629  94.2654324  67.3255253
  39.4675541  94.1497898  68.2032442 113.6065960  46.0560513  10.3196704
 112.7187634  45.7394314  10.1531160 114.0663242  45.2995062  10.6837082
   0.4352375  65.9655380  36.0890961   0.7738304  66.4107084  35.3123021
   1.2027050  65.5467367  36.4787507  66.2329197   9.1229957  82.0350361
  65.5657148   9.5496577  82.5726604  65.9176683   8.2253522  81.9297504
 110.7246494  38.2656121  28.4039474 111.3023376  38.2908249  27.6411366
 109.8417091  38.3136582  28.0374241  93.4065819  65.0196218   4.3583995
  92.8783417  65.7402658   4.0150821  94.0674305  64.8644018   3.6835566
 113.0082321  80.0260735   4.3040761 113.3645630  79.3611050   3.7149474
 113.0601692  79.6285963   5.1732963  52.8502750   1.7749524  90.0180626
  52.7801514   0.8550797  89.7628212  53.1839609   2.2155911  89.2365742
  33.0178523 103.0981255  92.1620369  32.4218225 103.8438606  92.2317219
  32.4465823 102.3505783  91.9857979  86.3084126  68.6021185  10.2263868
  87.2549629  68.7232924  10.3011930  85.9360027  69.2497349  10.8248305
  99.9284744  61.0157061  14.4779372 100.4720688  61.2248421  15.2375424
  99.3597317  60.3067970  14.7783017  46.3985729  10.4093599  82.9869938
  45.5797148  10.4854524  82.4971867  46.9808245   9.9202096  82.4056625
  11.6748607  85.8822632  70.5705976  11.5930057  85.4861546  71.4381361
  10.8732533  85.6268311  70.1140738  53.4259939  12.3725855  68.2003641
  53.2222795  12.5191581  67.2766495  54.2636967  12.8159618  68.3341694
  28.0150986  89.0644455  85.3639698  27.4693680  88.4209156  85.8159351
  28.4634542  89.5343304  86.0671234   6.4999706  37.7565980   0.4920824
   6.4125580  37.7474308   1.4452386   5.6204373  37.9584265   0.1728348
  50.2149057  18.8591003  46.3984442  51.1091566  18.6719108  46.6839361
  50.1851606  19.8120522  46.3134098  55.4949713  10.8161700  86.6034889
  54.8805332  10.7343209  85.8741093  55.5488157  11.7577994  86.7667866
  59.8308325   9.5573634  65.1995230  59.2079163   8.8700277  65.4356909
  60.5151796   9.1021425  64.7089338   1.0510505  95.0530720  83.3587456
   1.9753870  95.1952744  83.5627365   0.8961847  95.5759716  82.5720978
  54.5120382   7.1155494  70.8454180  55.3137732   7.5135154  71.1846447
  54.8169947   6.4582145  70.2200031  22.6742291 103.6083984  82.4838734
  23.3729076 103.0414391  82.8104305  22.4091482 103.2089233  81.6553974
  14.7275877 102.8848648  68.7509060  15.0806022 102.2433567  68.1344032
  14.3003798 102.3580647  69.4263315  33.4133387  85.0827503  77.9849577
  33.9417958  84.3330002  78.2585144  32.5088382  84.8007488  78.1212950
  22.3235202  99.2419147  85.9004974  23.1105638  99.2820835  85.3571987
  21.6699243  99.7430134  85.4127026  24.8085070  99.9295330  62.7274275
  24.3459654  99.2015839  62.3122406  24.9916625  99.6218014  63.6151171
  10.6913483  65.8810663  23.1727815   9.8647439  66.2558937  23.4768581
  10.4573035  65.0073576  22.8595948 101.6090775  42.4670696  23.7876487
 100.8518124  42.8550911  23.3492184 101.3945389  41.5368700  23.8578606
  20.4187012  77.8331470  71.5488386  20.7938004  77.9372883  72.4233007
  20.5216026  76.9017696  71.3534451 101.9215584  37.3732066  29.7132087
 102.6426125  37.1275473  29.1335821 102.3226833  37.9500699  30.3632545
  30.3989053  67.6468515  77.3301601  30.7376289  67.1324778  78.0629063
  29.4526958  67.6722908  77.4725389  45.9062719  84.4805145  87.1945190
  45.7323313  84.1979980  88.0923843  45.4506302  85.3184986  87.1145821
   9.0533733  64.9589300  65.7274961   9.7200418  64.6874285  65.0965691
   9.4677919  65.6634998  66.2255716  74.7479916  63.1178093   5.2941775
  74.0045404  63.0305815   5.8907539  75.2239370  63.8838196   5.6150126
  50.1719713  78.6328793  79.3193769  50.1635551  79.2270088  78.5689306
  51.0819721  78.6348438  79.6162319  39.6236825 106.5135860  75.0974751
  40.3756237 107.0392323  75.3704309  40.0009251 105.6736755  74.8357868
   9.2692274  52.4014330   5.0296253   8.6445534  53.1006718   5.2221763
   8.7690204  51.5940094   5.1483339  41.6149855  93.7387753  90.5691528
  41.8273592  94.5053864  91.1015511  40.6865883  93.8420105  90.3602219
   4.9973521  44.6214104   2.1920824   4.4307211  44.8123837   1.4446262
   4.6940076  45.2137327   2.8800988  70.2238750  16.1436582  23.2542086
  70.5927038  15.3043139  22.9790735  69.8040152  15.9570467  24.0939236
 108.7551117  99.2982006  34.7165012 109.0989494  98.4088612  34.8006964
 108.2166767  99.4218159  35.4981923  24.7709274 106.3376427  80.7718754
  24.0366840 105.9686089  80.2810192  25.3296256 105.5856991  80.9685230
  20.8522749  53.3181667   6.9979000  21.6178608  52.8717279   7.3595685
  20.3145313  52.6148081   6.6340965  23.5469294  21.4527702   0.4115300
  22.9496312  21.8938422  -0.1925572  23.1471992  20.5959105   0.5606515
  38.1821322  90.1416874  89.9186134  37.3645663  90.2783966  89.4399452
  38.7896490  90.7781601  89.5417213  15.3841770  39.2957306   6.4815348
  15.6015944  38.3700132   6.3719523  16.1608219  39.6773601   6.8906975
  40.0817633  96.1349106  92.1801281  40.3777838  97.0143032  91.9450378
  40.1400995  96.1098957  93.1352234  86.9354725  12.8307259  88.1928158
  86.4873409  12.3922098  87.4695492  86.3458920  12.7246761  88.9393902
  14.2727107  37.9479616   0.6383714  14.0974397  37.0785349   0.2783498
  13.6329478  38.5175341   0.2111444  42.2330713 101.9672012  86.8084621
  42.5850487 102.5441456  86.1306095  42.1998501 101.1044788  86.3951397
  69.3468094  41.4256573  14.4353783  69.5697880  42.3562527  14.4128656
  69.9987459  41.0094452  13.8714838 113.0412579  58.5166359   8.1190377
 112.3874855  58.5166883   7.4198824 112.9582500  59.3796682   8.5246378
  68.4235477   3.9930105  83.5253239  68.5769796   3.2441765  82.9491806
  68.7530851   3.7103447  84.3783951  10.2478135  83.6681747   3.7975785
   9.2920136  83.6485291   3.7496805  10.4536688  83.2656288   4.6412686
 102.0000935  30.3801394  67.2737885 101.5085793  30.3560972  66.4527750
 101.8867683  31.2748027  67.5946760   3.3289352  67.9791021  12.1239054
   3.7942222  68.1821918  11.3124287   4.0025944  68.0192137  12.8027320
   7.2119695  97.9570389  61.7365789   7.4597490  98.7928104  62.1319723
   6.5651047  97.5895691  62.3388767  11.1107254  68.8034868  10.1447773
  11.1150551  67.9088116  10.4850268  10.5098414  69.2759466  10.7209313
  85.1844501  70.4505491   0.6010383  84.5269203  70.3308964  -0.0842167
  85.6445885  69.6121311   0.6404756  64.2460918   1.0534106  61.1797667
  64.8995256   1.2704475  61.8447113  64.7280359   1.0786904  60.3531313
 105.5515385  65.9135485   2.0101865 105.3429413  66.7664480   1.6290338
 105.4303551  66.0358906   2.9517686  34.7324347  62.6917171  19.7965145
  34.2356896  62.6256418  20.6120586  34.1550374  62.3139238  19.1331017
  31.9253349 102.3597717  23.2998109  32.0053673 103.2797146  23.0477548
  32.8184628 102.0191193  23.2496643  45.9357023 106.0114574   4.8551175
  45.9737349 105.1732159   4.3945426  45.3528786 106.5516853   4.3215486
  98.2849216  50.0150824  70.5013132  98.0172634  49.8782778  71.4100885
  98.3845234  49.1320944  70.1454496  18.8691497  59.3745041  90.2013111
  19.6968484  59.0044880  90.5082893  18.7833476  59.0565300  89.3025589
  11.5007031   6.2482435  76.3963604  10.7071424   6.0003448  76.8707466
  11.8856478   6.9486982  76.9230604  97.0204639  25.4402971  76.8849134
  96.2926960  24.8404837  77.0486641  97.7969360  24.8805475  76.8854380
  28.6839700  21.7154622  68.0392981  28.1553411  20.9225774  67.9491949
  28.7009263  22.0932341  67.1599627  15.5022776  22.8885269  57.8789997
  14.7741199  23.0173087  57.2711897  15.7239151  23.7705564  58.1775522
 106.5375423   6.6197789  89.5793438 106.0643768   6.5713280  90.4100037
 105.8881855   6.3770652  88.9192963  59.4947720 103.1232834  11.2834561
  58.7589264 103.3681965  10.7224023  59.8091888 103.9532280  11.6420102
  63.6531210  84.2395687  10.0369072  63.7294960  85.1937199  10.0378501
  63.7240934  83.9945221   9.1143310  58.4911728   8.5155839   9.2267358
  58.3987665   9.0906852   8.4671628  57.7524424   7.9105210   9.1603172
  50.0954151  64.7146177  13.7620759  49.3492937  64.1279411  13.6381900
  49.7117805  65.5200481  14.1089618  22.6326084  40.4048491  65.3797626
  23.1634402  41.1229324  65.7244444  22.6166987  40.5513239  64.4339705
  67.3100328 101.7414474  23.1494713  67.6190090 102.3136711  22.4470949
  67.1826410 102.3263836  23.8963723  74.2618847   0.4976929  22.7213025
  73.6139250   1.1921456  22.6024890  74.6420097   0.3734469  21.8516445
  86.2142754  20.1589632   0.8585599  86.9249249  20.3901672   1.4566866
  86.3753986  20.6899214   0.0785892  32.4234581  86.9274712  29.9710083
  31.5859747  87.3536396  29.7886968  32.2533131  86.3844013  30.7406569
  30.0582457  62.0039749  27.8154111  29.2076635  62.0808554  27.3831725
  29.9019074  61.4072371  28.5473251  11.4677906  59.9156809  77.4944496
  11.4158428  59.2263556  76.8323565  12.0526624  59.5610380  78.1640625
  24.3666840  18.2763720  71.0560656  24.4370604  17.9460955  70.1604080
  24.8858118  17.6648366  71.5783310  99.1704941  98.0375099  16.9343209
  99.4965458  98.5698032  16.2086546  99.4669437  97.1500397  16.7324746
  16.0511422  93.8238335   4.8250398  16.0359657  94.2006493   3.9452603
  16.8973792  94.0896130   5.1848662  19.4838011  24.5054412  80.9732246
  18.8173556  24.2454338  80.3372383  20.1083326  25.0248933  80.4668999
  51.7444849  45.1333046  19.4521093  52.4274683  45.6582403  19.8694921
  51.6380405  44.3766546  20.0286341 110.3168488  24.8544216  69.9378920
 110.6521034  25.4143834  70.6380892 111.0998535  24.4747448  69.5391846
  59.8365498  85.0293255   6.7872506  59.5702744  84.2196941   7.2229451
  59.7985601  85.6947231   7.4743056  36.1067557  13.8795674  87.0145130
  35.8548403  14.5554364  86.3852501  37.0203590  14.0748763  87.2228718
  17.3309290  23.0879807  89.0712070  17.8588521  22.5633073  89.6730709
  17.9644215  23.4550452  88.4546185  33.6402845  85.3884125  26.6851544
  32.9171705  85.0449181  26.1604142  34.0828300  84.6094131  27.0221305
  31.1356568  49.8090553  13.7610042  30.3070545  50.2842426  13.8230217
  30.8909273  48.8880777  13.8512063  16.5823007  37.4290872  72.8881836
  17.4865246  37.4389243  73.2020521  16.3617790  36.4999795  72.8221655
  39.6078515  95.1491165   1.7735800  38.9899611  95.7232189   2.2261781
  39.9196124  94.5503426   2.4521844  86.2426376  98.7493992  17.0937622
  86.1831188  98.7258244  18.0488181  85.6061077  99.4140148  16.8304455
  18.8969946  38.4662509  66.2218380  18.8411748  39.4083261  66.0618114
  18.2082570  38.0891037  65.6744528  54.9535847  38.7478995   0.7764191
  54.9068975  39.5816159   1.2443627  55.8092499  38.3889389   1.0113990
  84.6768951 104.9752998   5.8666635  84.6335030 104.7740936   6.8014717
  84.2895794 104.2115116   5.4390454  30.8117104  27.7091074  90.4759121
  30.6485248  27.2695136  89.6414280  29.9402690  27.9292703  90.8050728
 103.1898785  14.4201994  29.4858122 103.4706116  14.3813646  30.4000950
 103.8048935  13.8519204  29.0220761  14.1838241  33.9906311  81.0876560
  14.9192822  33.8857889  81.6912651  14.1856587  33.1879520  80.5661774
  24.6618247 100.8242226   2.3018280  24.0173697 101.5281105   2.2280295
  24.7906065 100.5221558   1.4027146  14.5965099  63.7827826  81.6825104
  13.7791514  63.8973856  81.1977100  14.4223654  63.0525875  82.2764111
  22.7395916  70.5942869   1.3792959  22.7679038  69.6375132   1.3761708
  22.2262526  70.8161783   2.1561360   8.3003825  52.8360558  47.3302794
   8.9270282  53.0668879  46.6445208   7.5406039  52.4977636  46.8564367
 104.6252441  74.6007872  76.8686247 105.3240395  74.5213413  77.5179338
 103.8765812  74.1568422  77.2669363  65.1016951  16.1873913   0.1527913
  64.6442795  15.6618762   0.8091719  65.9771776  15.8032286   0.1060444
   3.9552295  41.7131758  78.9798498   4.1293722  40.7798910  79.1018486
   4.5717847  41.9850016  78.2999945 107.7418137  55.1321650  73.1119013
 107.9800892  55.5728436  73.9275360 107.8938961  54.2036819  73.2880354
 111.0313892  76.8193150  80.5551052 111.6716385  77.0569754  79.8844194
 111.5076733  76.2343311  81.1443233   1.7960778  51.9252729  78.0904675
   1.7111069  50.9745884  78.1626463   1.9959916  52.2161150  78.9802313
  14.8176682  51.4928436  69.1934872  14.8127437  50.5675411  68.9484882
  15.7293463  51.7641306  69.0863466  27.7661419  32.6725054  66.0440588
  28.6763406  32.7775502  65.7670450  27.3853040  32.0801735  65.3957272
  98.1667709  57.7776670  84.6134472  97.7027416  57.2832966  85.2890968
  97.9893780  57.3002577  83.8029861  50.4069853 100.9447765   5.7838863
  51.0770512 101.6270542   5.8256787  49.9976254 100.9577942   6.6490376
  54.6369696  81.7764950  14.8009491  54.0487432  81.4286137  14.1307306
  55.2566767  81.0663033  14.9677598  34.0292764  89.6585560   1.0399196
  34.0764189  88.7449837   1.3216987  34.9384570  89.9578857   1.0446627
  26.2627721  19.9915040  83.8986683  25.3235960  20.1472282  83.7990284
  26.5004945  19.4647348  83.1356239 108.2463169  54.7078037  88.4203243
 107.9394150  55.0566673  87.5834560 108.4346771  53.7865782  88.2411671
   7.5755495  62.1886730  89.7001553   7.0502710  62.3366594  90.4865456
   7.3764068  61.2878180  89.4451237  68.5123682  90.9718513   6.3286829
  68.4739017  91.9273281   6.3712466  69.4210196  90.7590103   6.5414774
  49.5652199  69.6550703   8.7778592  48.8101578  69.6789694   9.3656892
  49.3676329  68.9487743   8.1627655  34.4780374  67.1750736   5.7533377
  33.6793184  66.8580055   6.1749381  35.1348281  66.5076685   5.9519058
  19.7961032  45.1942396  88.3971691  19.3825603  46.0402155  88.2252979
  20.6459832  45.2499390  87.9603195  41.4799738   5.4183888   3.5004011
  40.5717421   5.3375912   3.2091600  41.9986153   5.1223153   2.7523485
  14.1788542  47.2876930  82.8834915  14.0637767  46.3395548  82.9468822
  13.6581981  47.6409197  83.6048603  34.5863104  49.3542004  89.2259216
  33.6512494  49.5477533  89.2924786  35.0158882  50.1991034  89.3594742
  33.8885641  76.8974495  16.4250016  33.2872081  77.5790453  16.1249483
  33.7900090  76.8932772  17.3771048  29.8532772  42.3049545  68.3288622
  29.0473080  42.1122932  68.8079548  29.7714543  41.8100214  67.5136471
  36.2154317  74.3081284   5.0118971  35.4232788  74.3617249   4.4772428
  36.9197965  74.1559982   4.3818504   6.9014639  27.0970821  88.0816936
   6.4598638  26.2670112  87.9022503   6.2503058  27.7656674  87.8690434
  19.6363556  67.4875879  63.7530375  19.3099499  67.8826571  62.9445696
  19.1307485  66.6801786  63.8461924  21.8171215  60.6087303  46.0666847
  22.1169925  60.8335829  45.1859140  20.9440875  60.9962893  46.1286831
  36.6035533 106.4433384  12.0538652  36.3526368 106.0409927  11.2223661
  37.4539614 106.8460178  11.8781126  25.2137756  58.9306450  67.6730394
  25.6801748  58.1658888  68.0104589  25.7269216  59.2086267  66.9143343
  23.0376935  21.6747808  75.3788328  22.9642200  22.6164699  75.5339289
  23.8397717  21.5784693  74.8653889  23.8892865  33.1957555  77.1829796
  24.1725063  32.4310350  76.6817570  23.8008857  32.8746390  78.0803633
  26.7072463  41.4069128  57.9546022  26.0672832  41.1453390  58.6166096
  26.1858797  41.8257380  57.2697735  35.1578164  37.4442196  84.7011852
  34.6220231  36.8699741  84.1540146  34.9500799  38.3275533  84.3965626
  15.7642174  68.6942863  68.4787512  15.7479906  69.4506979  69.0651035
  16.3474083  68.9560032  67.7662754  88.8173485  41.8317652  77.2332716
  88.3597851  41.4004374  76.5115833  88.9832115  42.7192640  76.9153595
  59.0648079  94.7674179  22.2498035  58.5899115  95.2934361  21.6063643
  58.8856506  95.1945114  23.0874920  16.1807537  49.4358253  65.2050734
  16.2843323  48.6230373  64.7102261  16.3530242  50.1282883  64.5670652
  34.2681122  36.4537787  77.0172071  34.5932603  36.2160850  77.8855419
  33.6331797  35.7700133  76.8037605 112.7909851  78.6426783  83.1322765
 112.3509407  78.5834837  82.2842789 113.3717346  79.3989420  83.0484772
 109.5014095  14.3114424   5.5305898 109.7614002  14.5429456   4.6389371
 108.5645485  14.1259789   5.4663855  22.6941800  72.7449656  74.0230179
  23.2510114  73.5002518  74.2119884  23.2624817  71.9875002  74.1626930
  43.0401087  95.8826160   0.2630573  42.1140146  96.0784054   0.4053571
  43.1562662  95.0019264   0.6196126   5.8804762  62.5739717  52.0708179
   6.3127190  62.5800514  52.9248476   5.2003920  63.2438087  52.1418142
  99.2547035  43.4845257  82.0372677  98.3273220  43.2641125  81.9499588
  99.4887447  43.1911421  82.9178238  96.1627197  38.9863896  13.6343694
  95.5368519  38.7930870  14.3323374  96.2966061  38.1473327  13.1935835
  16.2098658  28.7809467  73.7270117  15.9966326  28.1012249  74.3663406
  16.9562936  28.4283519  73.2424974  31.2251401  41.9625330  60.0825024
  31.6289496  41.1789751  59.7094059  31.9403338  42.5960636  60.1405430
  88.3384228  78.8267136  89.5891476  88.3347988  79.7829342  89.5459461
  89.1010761  78.6141539  90.1271152   9.8541516  35.8414340  56.9054461
   9.6991116  36.7798495  56.7978954   8.9847648  35.4461265  56.8411779
  69.3331718 101.9342422   9.6670401  68.5616779 102.3297691  10.0727367
  69.3888855 102.3471832   8.8052917  88.6841297  22.7715492  78.2773304
  89.5427799  22.4397945  78.0148602  88.7473297  22.8750014  79.2268229
  86.3052368  26.5436792  48.5908747  85.9732246  25.6755257  48.3621645
  87.1842098  26.5711904  48.2128811  17.7517521  67.1739340  74.5868397
  18.6660624  67.1302414  74.3069124  17.5221717  66.2688017  74.7972393
  22.6208034  51.8668989  92.8276837  23.5465303  51.6569380  92.7044735
  22.5708928  52.8141360  92.6992433 109.7851849  56.0218620  52.2657490
 109.3342972  55.6419230  53.0197859 110.5862427  55.5049229  52.1802425
  87.6579571 103.0763531   9.3814331  86.8974018 102.7563477   9.8665947
  87.3612881 103.1196880   8.4724003  19.1336453  62.1303129  81.5450191
  18.5059392  62.1044111  82.2672081  19.1652799  61.2295532  81.2227535
 102.4639511  67.0905781  63.8632631 101.9603157  67.7305698  63.3602762
 102.1637630  66.2414122  63.5391617  14.0752411  61.4657736  83.0327892
  14.3578351  60.5831432  83.2722378  13.3917415  61.6790295  83.6680698
  90.8575916  31.3918257   6.3774186  91.3204765  31.5727162   5.5593389
  91.2490559  30.5799317   6.6996294  72.9023504 104.1007328   0.3069106
  73.0244112 104.1637802   1.2542008  73.1353998 103.1968403   0.0950219
  42.1986961  18.3892155  35.7995081  42.7119446  17.5851464  35.7202435
  41.8671513  18.3742023  36.6973305  15.5979502  23.6321783  61.3723707
  15.4366541  24.5756888  61.3738394  16.5387499  23.5502672  61.2161064
   2.9858285  87.3234653  90.0130081   2.1167591  86.9230556  90.0379848
   3.1707960  87.4364185  89.0806675  30.3977323  85.6835175   2.1658263
  29.6597791  86.2924194   2.1956372  30.4645205  85.4330540   1.2443913
  25.0332379  19.6878564  57.1601248  25.3244781  19.2114043  56.3826895
  25.8310199  19.8217094  57.6718473  13.6617708  49.2139196  74.4164228
  13.4963703  50.1502037  74.3057346  14.6136403  49.1305065  74.3596983
   8.6073887   5.9662998   5.9246224   7.8983802   5.3459227   6.0939485
   9.4073790   5.4568833   6.0540146  21.8678474  53.8698959  52.1756268
  22.6534677  53.4338474  52.5056219  22.1427608  54.7735453  52.0204687
  65.2857113  88.4992981  19.1959941  64.6247149  88.9793015  18.6970794
  65.2696133  88.9019585  20.0642323   6.3618070  18.7766886   8.4787273
   6.1417174  18.3781433   9.3207210   7.2278976  19.1609144   8.6146998
  12.4335170  40.6390285  63.2498598  12.0909131  41.5237761  63.3766270
  11.7298925  40.1719952  62.7992773  86.3157463   0.3235149  11.1782050
  86.5483189   0.7883022  11.9820201  85.4767895   0.7027848  10.9164202
  65.5605793  77.7231264  39.6884489  65.9685183  77.6299810  40.5493450
  64.6974945  77.3212862  39.7876453   4.1767102  42.5471497  69.3632078
   4.0265214  43.4180164  69.7309923   3.9473316  41.9453001  70.0713015
 110.3059387  32.5764704   7.3391658 110.5391312  33.4590816   7.0513237
 110.7177830  31.9984484   6.6968966  32.9339433  68.8626957  63.4820127
  32.6735306  68.1799078  62.8637743  32.6457119  68.5364914  64.3345070
  66.4212275  85.5549526   8.5002261  66.9990873  85.2478409   7.8016627
  66.9532776  85.4973698   9.2938483  -0.2042610  14.4636095   1.1309216
   0.2119556  15.2578270   1.4659062   0.1873573  13.7545872   1.6409737
  24.7287512  66.5817165  86.1435604  25.6814575  66.6023302  86.0532284
  24.5786238  66.2127018  87.0139217 102.4016762  52.8317690  74.8954725
 103.2883930  53.1900311  74.8552179 101.8396091  53.5504484  74.6059704
  87.4536800  85.4528618  74.7300768  87.0065594  84.6172619  74.8645449
  87.1115398  86.0213375  75.4200125  76.0126829  15.6719565  15.0570226
  75.4462004  15.5076122  14.3031502  76.6844034  16.2683547  14.7263694
   2.1116544  48.9600277  83.5706425   2.6251823  48.2490396  83.9540672
   1.3367647  48.5286093  83.2105541 109.2534542  31.7490673  76.5430784
 108.9466190  31.6325068  77.4422455 109.7075558  30.9319901  76.3371468
  32.4571705  95.3973961   1.2369370  33.0489182  95.5144310   1.9801527
  31.9979501  96.2339211   1.1623622  98.4562111  77.8031301  89.3325424
  97.6170158  78.0484962  88.9429760  98.5144043  78.3315754  90.1285267
 105.3003120  37.6274681  86.7723942 105.7526588  38.1462765  87.4375725
 105.9407520  37.5307965  86.0676098 104.1440964  33.1677222  56.1294508
 104.6024227  33.8720298  56.5878391 103.7138462  32.6697922  56.8245602
  20.7528567  29.0070224  69.4025326  21.6543293  29.2423606  69.1830015
  20.8228517  28.5429215  70.2367687 106.0401726  58.5338020  78.5122204
 106.3952827  58.5472918  77.6234293 106.5172577  59.2250919  78.9712811
  64.9445343   2.2058512   7.7993000  64.1846466   2.5798091   8.2453501
  64.7793865   2.3655689   6.8700796   9.8615801  16.0291731  12.9267323
  10.7644737  15.9256601  12.6262319   9.4821036  15.1536715  12.8510594
  22.3906636  13.9736331  70.0826597  22.3300362  13.9812326  69.1274118
  22.1566486  13.0791521  70.3304005   8.1019127  18.6157346  24.1045308
   7.2560227  18.4933197  24.5354795   8.7473166  18.4252310  24.7852612
  19.9516428  70.5118704  85.5754662  19.6410036  71.2222958  86.1367416
  20.7674909  70.8427286  85.1997566 103.5626602   5.0827998  27.5372410
 103.7011433   5.4785919  26.6767740 103.9538574   4.2120850  27.4661303
  60.9948921  19.0753984   7.6619369  60.3444481  18.8373852   7.0012563
  61.4062119  18.2453799   7.9030156  11.0889900  21.0976577  81.5460873
  11.2195528  22.0380950  81.6675854  10.4556453  20.8545589  82.2213650
  50.2090406  33.6153269  62.3035812  50.7772350  34.1904831  61.7911530
  50.8030653  32.9672980  62.6822948  32.9014802  45.1940346  76.1414719
  32.4277234  45.8237362  75.5980921  33.5988593  44.8651695  75.5742502
   6.8291742  90.1759338  52.6621628   7.5024551  90.4063225  52.0219707
   6.2389892  89.5897007  52.1886158  20.0723124  33.3234835  92.2521019
  20.6319594  32.7424860  92.7673435  19.2068779  33.2393742  92.6523304
  16.7821133  37.2216368  49.0837479  16.2842071  36.7924976  48.3879328
  17.6980543  37.0607615  48.8570309  86.8381977  10.2545643  11.1671364
  87.4640846   9.5569408  10.9726787  86.0782814   9.8000699  11.5307236
  35.0246763  58.6284494  57.8245211  34.6873260  58.8857365  56.9664812
  34.2550993  58.6265659  58.3937120  23.9526868  47.6785088  36.6373372
  23.1444168  47.5285625  36.1469817  24.0250373  48.6312675  36.6942811
  28.7611270  22.7886796  70.8868361  28.9395833  22.4696326  70.0021935
  28.6768365  21.9949985  71.4152288  22.3549414  49.8389053  61.9108534
  22.6840830  49.4548035  62.7234840  21.7316914  49.1940022  61.5763474
  11.0927439  70.7328510  90.5969620  11.0199893  69.8294687  90.9049225
  12.0317984  70.8675194  90.4693890  70.5525684  11.0178828  11.9155395
  70.9131193  11.5564823  12.6199162  69.9667692  10.4043770  12.3590267
  43.6628771  85.9069061  15.7207406  44.2472649  85.6290245  15.0153995
  44.2090845  85.8860588  16.5065265   6.1754543  18.2784426  77.9640245
   5.9465665  18.5407305  78.8556767   6.5183002  17.3895359  78.0563927
  98.1472874  37.3429942  84.6257687  97.3304749  37.5076580  85.0968742
  98.8176346  37.3220253  85.3087234  29.5915532  58.8259554  56.3119268
  29.9107575  57.9509544  56.0912132  28.6708021  58.8180399  56.0504246
  91.2500477  17.6600659  11.3745558  91.4846897  16.7439032  11.2268472
  91.8805313  17.9667199  12.0262337  20.2949047   3.6425659  11.8612981
  20.4586649   3.9430144  12.7552474  20.8609724   2.8775975  11.7582417
  16.3812757  57.3913527  84.1109562  16.6560471  58.0813074  83.5070610
  16.2463343  56.6249609  83.5535812  23.7824774  55.0610065  69.2223501
  24.4859028  54.5266199  68.8537693  23.0770183  55.0060272  68.5777330
  38.7709785  97.7809811   2.5666836  39.2875886  98.5290241   2.2670536
  37.8923202  97.9439354   2.2237024  21.1092186  56.5831518  66.0960770
  20.4839253  57.1106291  66.5930796  21.7939544  57.2011900  65.8403444
  54.6748829  98.3030605  14.8712838  55.2068377  97.6875305  15.3756392
  54.9475908  98.1676292  13.9638031  26.0463023  24.4371009  57.0121336
  25.1455522  24.7046137  56.8296003  26.5474772  24.7552609  56.2612486
  41.9533730   7.9504424   4.4873899  41.7455626   7.0605028   4.2026868
  41.3979101   8.0925524   5.2538747  93.0308056  39.1322064   2.5598493
  92.4326134  39.3721128   3.2675552  93.2786274  39.9669790   2.1623951
  29.0211701  88.3914948  41.5251398  28.3705997  88.5815144  42.2010660
  29.5243216  89.2015743  41.4424896 113.8538906  84.5676327  74.4397736
 113.6126385  84.4820023  75.3621054 113.7578645  85.5014610  74.2527819
  62.8328276   8.9313275  36.6028190  61.8921709   8.7557894  36.5785670
  63.1016922   8.9235288  35.6841874  10.1505244  27.1793866  82.1177959
   9.3162137  27.0157599  82.5575447  10.1319969  26.6092205  81.3491535
  99.5604324  87.2557449  77.3104334  99.3210411  86.6496181  76.6093349
 100.3566933  87.6836300  76.9956207   1.8666916  60.0399017  66.2006044
   2.0340805  59.3914604  65.5166912   0.9512456  59.9011135  66.4433575
  91.9406223  15.9580290   1.1230946  92.8069305  16.0307753   1.5236565
  92.1120834  15.9497571   0.1814139  90.5483532  12.4512553   9.7894359
  90.4458618  11.6459477   9.2822808  90.9150696  12.1628964  10.6252611
  25.7823539  57.3839188  79.2502499  26.2812829  57.9842901  78.6963034
  26.3156033  56.5897131  79.2836380  68.0024433  13.7283945  36.7278194
  68.3960390  13.0278563  37.2479725  67.2973824  13.2994688  36.2428999
 107.7622414  47.8366423  80.2117729 106.8885517  47.7542448  80.5940151
 108.3154964  48.1233454  80.9383678   9.7061014 105.7160950  22.0687246
  10.2294278 105.4800892  21.3027859   9.0274948 106.2972927  21.7253041
  22.5823426  88.2907104  65.3931904  22.7521348  88.3419991  64.4525671
  21.6649795  88.5479641  65.4853535  21.4416718  62.1597576  72.6431227
  21.4216113  61.3488054  73.1512451  20.9910274  62.7992153  73.1947088
  28.6788869  53.1159115  92.3410320  29.3860078  53.2609892  91.7124081
  28.2174277  53.9536285  92.3799801  70.2938795  22.4286628   7.3013532
  70.3809166  21.5297484   6.9841635  70.7453585  22.4295926   8.1453902
  18.0708563  42.7585268  85.0679398  18.7933421  42.1311140  85.0434875
  17.9958498  43.0726767  84.1668701  74.8545408   9.7773165   0.8375521
  75.1529455   9.3837136   0.0176359  74.9911118   9.0947247   1.4945516
  22.2444844  50.8676147  69.5862150  22.7693319  50.8422947  68.7861347
  22.7904654  51.3382244  70.2160311  16.1214375  75.9140205  85.6397915
  15.2804339  75.7782936  85.2033043  16.5525997  75.0603676  85.5997372
  30.7826066  56.3172054  58.7316942  30.1224828  55.6657124  58.4949970
  30.2906895  57.0040512  59.1816854  89.6360302  66.0481215  91.1453724
  89.0396500  66.0508060  91.8940735  89.9786282  66.9411612  91.1088657
  34.4549131  41.5559006  81.0153484  35.2464366  42.0124912  81.3003922
  33.8527060  41.6359568  81.7550564  88.3168793  16.5468383  12.1909618
  87.7395916  15.9940910  11.6642368  89.0996552  16.6582119  11.6514266
  10.6011009  74.8410845  75.8517838   9.8889273  74.3044567  75.5038309
  10.9747458  75.2711773  75.0826025  56.6285324  91.4465141   5.1029563
  56.2437153  91.9648361   5.8097017  57.0937872  92.0855999   4.5631966
  25.7864070  25.8268428  59.7229052  26.1056948  24.9878287  59.3907213
  26.2925816  26.4825964  59.2433167  15.7031953  49.8403692  82.8274727
  15.0931692  50.4968882  82.4911976  15.1980042  49.0274191  82.8385448
  96.2812424  22.1912408   7.2189420  95.3569794  22.4206567   7.3156267
  96.4390755  22.2253942   6.2754619  18.0836165  55.7654095  72.4584150
  18.3984149  55.3212309  73.2457161  17.9135728  55.0581837  71.8362093
  13.0835783  41.4367056  78.6746168  13.7335753  42.0922184  78.9276743
  12.6095080  41.2447023  79.4837093 110.9889603  45.7547426  76.2724924
 110.4628754  46.1306858  75.5667067 111.6982365  45.2946997  75.8235836
   4.6415132  99.1933918  70.7011604   3.9193437  98.6894894  71.0763741
   4.7144768  98.8740730  69.8017454 101.4367580  12.7454805  32.9101729
 101.4514256  12.9420114  33.8468647 100.8886147  13.4319329  32.5299716
  78.3207606  19.8701052  93.0123254  77.8100042  19.1852240  92.5806986
  78.6938068  20.3798823  92.2931621  20.1602840  70.0850058  92.1929550
  20.6896448  69.3465948  92.4942112  20.7993174  70.7296371  91.8891144
   3.0408433  74.1196489  70.2305126   3.8560650  73.9982843  69.7437763
   2.4183822  73.5290813  69.8062515 108.2419300  37.6860166  70.1574230
 108.1666183  37.0775580  70.8925009 109.1513729  37.9833317  70.1848173
   1.7977107  45.5015135  86.7988396   0.9072988  45.8524370  86.7829990
   1.8766099  45.0871801  87.6581001  88.1123734   1.4904220  19.2475998
  87.6490593   0.9493192  18.6082435  87.4688148   2.1452031  19.5183861
  64.9010944  42.4567366  12.9437840  64.3055105  42.6145220  12.2112441
  65.6519413  42.0120096  12.5504923  60.3515720 102.3215866   6.2075233
  60.8932877 103.0722904   6.4508760  60.6878328 102.0504475   5.3533322
 109.5346642  89.2770195  59.6046066 109.5898438  89.0556240  60.5342150
 108.6018658  89.2158031  59.3987751  25.3167796  39.4013453  75.2004337
  24.7195578  39.5047307  75.9412909  24.7563529  39.1151738  74.4791412
  88.9874268   6.4055711   7.4654096  89.0108681   7.3580742   7.3736477
  88.5726070   6.0974622   6.6596675   2.1456078  25.4542518  65.7131004
   2.0401935  26.2414408  66.2473774   1.7155059  25.6674743  64.8849821
   9.9090749  78.1105375  48.2347727   9.7057742  77.6548767  49.0516424
   9.9801683  77.4132681  47.5828600  34.5068502  18.9156175  78.6595201
  35.2340198  18.9042318  79.2818785  34.6879983  19.6657622  78.0932140
  21.6174793  79.2082882  33.7344193  22.3274922  78.5792542  33.6062527
  21.8464231  79.9462795  33.1694531  40.7197094  69.1784143   1.3328703
  41.2376261  68.3755922   1.3917486  41.3497877  69.8818970   1.4889131
   4.3475878  11.6930795  73.0371666   4.4798377  11.6261148  72.0915174
   3.6876410  11.0283911  73.2343769  84.8840427  23.2251358  23.3020759
  85.0640297  22.3856783  23.7253332  83.9357662  23.3323574  23.3763266
  95.6529713  51.1026287  53.1152105  95.4991722  50.1606417  53.1875515
  95.7237148  51.4040184  54.0209675  71.1307049  94.7429085   5.1239449
  70.5012798  94.4522285   5.7839179  70.7032442  94.5583630   4.2876118
   2.2153923  68.0128860  50.2456331   2.6159832  68.1351757  49.3849325
   2.3289384  68.8558769  50.6846142  20.6837726  48.4383535  78.7240028
  20.8723545  47.5858974  78.3315897  19.9622548  48.2688427  79.3297338
 103.6098576  49.8035383  89.0837669 103.5741234  50.3644562  88.3089638
 102.7533150  49.3770933  89.1104412  17.3966384   7.1257520  75.4872274
  18.2558453   7.4899548  75.7001829  17.2350788   7.4044573  74.5858622
  49.6439457 104.8811817  17.9534101  49.2771149 104.0239143  18.1696594
  50.5491066 104.6978283  17.7018225  42.5232601   1.5341607  91.5885353
  42.9815197   2.3743118  91.5691566  42.9778481   0.9983386  90.9385490
  19.4121003  71.1327982  75.9542036  19.2066348  70.2745724  76.3249636
  19.3427110  71.0076666  75.0077581  58.7982702  34.9825931  88.1353664
  59.2746925  34.5072818  87.4546814  57.9482174  34.5450974  88.1827068
  48.1932116  84.4236374  21.0257387  48.3754921  84.7547245  20.1463127
  47.3741436  84.8503399  21.2773037 109.1427231   4.7331771  28.0677676
 109.2389679   4.1993719  27.2790861 108.4714508   5.3767478  27.8409576
  51.3832808  99.9039268  36.6349530  52.1081448  99.6252346  36.0753655
  51.2282419  99.1584969  37.2150636   0.9247696  44.1282940  89.0035534
   1.0285384  43.1892872  88.8495064   0.5267128  44.1859579  89.8721504
  11.2983620   8.4282124   7.6949835  11.4028072   7.7384007   8.3503330
  11.2684834   9.2388278   8.2031578  92.1414390 107.2436616   6.2659478
  91.4871100 106.6855174   5.8457565  92.1993986 108.0129982   5.6993842
  34.5717025  85.3393745  81.0909748  34.1051841  85.5796146  80.2904320
  34.7364473  84.4008923  80.9997177 112.4091053  34.9572492  91.7384434
 113.0890274  35.5519915  92.0550346 112.4791050  34.1896415  92.3059940
  72.5293493  26.9149280  16.2225890  73.3142757  26.7571616  16.7472124
  71.8224192  26.9844580  16.8641877 103.9083672  63.0305862  92.0402527
 103.8292789  62.6877642  91.1500549 104.8501396  63.0379343  92.2112846
  87.0377254  53.3790159  86.6841125  86.9221115  52.6572084  87.3020649
  87.1319294  54.1547775  87.2368717 105.7487679  57.2693729  37.1191239
 105.2473545  57.1071863  37.9181981 105.2754307  56.7913437  36.4381838
  33.1283307  44.2976522  87.4430752  32.3551035  44.1985941  87.9985332
  33.3934116  45.2096939  87.5619888  24.7179365  60.2905321  89.8222733
  24.3775034  59.4620371  90.1598072  25.6686354  60.2062893  89.8951340
   5.4969329  12.8764296  17.1712005   5.8978021  13.4625113  17.8131068
   6.2378645  12.4872589  16.7066598  25.0793266  13.8782656  78.2565737
  24.5398903  13.3759463  77.6459026  25.4833984  13.2172823  78.8187647
   0.3634091  66.2757111  64.7819901   0.4077977  67.1494818  65.1702976
  -0.4660592  66.2677383  64.3043423  34.6734190  65.2196455  68.5260677
  35.5517173  65.0070333  68.2104445  34.1714907  65.4032946  67.7319813
   8.2144278   7.3071259  11.1256862   8.3862227   6.4220440  10.8042073
   8.3775175   7.2557300  12.0674884  15.4374158  76.1527824  91.2589836
  15.2258706  75.2408886  91.0591602  15.6840694  76.5318441  90.4153633
  27.1657634  46.7732048  65.7918024  27.1487784  47.7286243  65.8476400
  27.2309875  46.4812660  66.7010641  45.5064964  85.7721806   5.9838068
  46.3834190  85.6888771   5.6092501  45.6442738  86.2188625   6.8191099
  51.2841082  44.0868855  86.8001747  52.0293522  43.6776495  86.3604355
  51.0328245  43.4603167  87.4787807  46.2237358 100.6661034   2.1844922
  46.2405443 101.4295769   2.7616057  47.1388149 100.5323219   1.9375701
 113.1169891  58.7499332  92.1441269 113.3786011  58.1082010  91.4838409
 112.4517632  59.2834187  91.7092800  27.3071313  18.6723197  78.4520817
  26.6995764  17.9442143  78.3218002  26.7642736  19.3768764  78.8058281
 110.9885979  60.8920288  86.9377327 110.2385807  61.3412809  87.3274422
 111.6759109  61.5574408  86.9051456 108.7758732  48.4469986  86.9781399
 108.4996033  49.0871096  86.3222694 109.3281364  47.8322601  86.4951038
  72.4724531 103.8055801  14.4351566  72.3792028 103.7951946  13.4825659
  72.8924608 104.6443748  14.6255696  13.2999003  95.3556633  38.8786745
  12.6197553  94.9402714  39.4088459  13.4516263  96.2003136  39.3026829
  20.4351568  19.4947314  91.6054249  21.1928296  19.7801781  91.0948467
  20.5784488  18.5584664  91.7436504  25.7286143  27.1696138  51.1022091
  25.4297638  27.0306706  50.2035379  25.3833699  26.4205456  51.5879440
  98.5733604  17.3570156  85.1237583  99.0368271  16.5308523  84.9863243
  99.1327381  18.0165648  84.7134781  21.9087958  97.9772186   6.6418523
  21.6436410  97.1538448   7.0517027  21.2307119  98.1487465   5.9883904
   8.8549459  29.5180559  75.4202890   7.9206508  29.3164158  75.4719210
   8.9075816  30.2554607  74.8122644  31.2310910  47.5858593  58.5544348
  31.0612059  48.5243559  58.6356735  30.7509422  47.3226213  57.7693272
  46.6700459  87.9696274  20.7645750  46.6487741  88.3177090  19.8731613
  47.3765278  88.4525108  21.1934614  13.7726569  24.3947625  67.2419357
  14.2781484  24.5909834  68.0307341  12.9818404  23.9632511  67.5654173
  39.9306059  62.7988052  62.7761221  40.8522034  62.6025677  62.6076698
  39.7060156  63.4676313  62.1292305  91.0534096  35.1065350  10.1175487
  91.2237835  35.4328775   9.2339718  91.4191532  34.2219687  10.1208317
  21.1731720  95.9748459  61.6639423  21.2863231  96.2996864  62.5572014
  21.8497181  95.3049469  61.5652037  27.1729755  56.8070889  56.1846161
  27.3919606  57.3755741  56.9229317  27.5514460  55.9586477  56.4151239
  17.5799048  73.2798290  85.6357956  18.4171295  73.1316757  85.1960945
  17.7779341  73.1821394  86.5671825 105.0133991   1.3822566   4.2571971
 105.7466984   1.9004522   3.9255691 105.4012489   0.8202915   4.9280173
  25.4055309  14.9310684  45.6421709  25.6171107  15.6666422  46.2169695
  26.2257862  14.4437766  45.5649710  13.0744588  90.6548405  87.5236988
  13.5594571  89.9004078  87.1892738  12.9350734  91.2094021  86.7560673
  57.3819017  83.7198639  10.6658137  58.3365822  83.6517811  10.6522775
  57.2102213  84.6416283  10.8584595  94.7893906  98.5147190   2.9890031
  93.9508247  98.6164761   3.4392232  95.0384235  97.6044941   3.1493396
  90.1847935  59.5175123  92.7473927  89.7019672  59.5703125  93.5722065
  89.7621822  60.1629114  92.1807384  13.1216455  36.9228935  79.3488979
  12.9564404  37.4541593  78.5699940  13.7262630  36.2430978  79.0513325
  20.9911036  20.9618044  73.6644411  20.8226514  20.0340748  73.4996080
  21.7990041  20.9710336  74.1777134  99.9408340  27.1454167   6.8760777
 100.0353813  26.2085819   7.0482194 100.0081158  27.2220421   5.9243244
  38.4122276  52.1431065  74.7156477  37.5290728  52.4650526  74.5350361
  38.6628723  51.6725731  73.9206600 107.9405689  39.8348784  80.0775242
 108.4791660  39.0717387  80.2867222 107.0590973  39.5904875  80.3594971
   2.4284993   4.2570570   6.1413842   2.3679376   3.3452618   5.8564401
   2.6716930   4.2035088   7.0656252  62.5184727  95.7312775  74.1110897
  61.7763710  96.3308907  74.0337849  63.1263828  96.0131836  73.4275579
  20.9636569 100.5027866  78.1277227  20.0948501 100.1012039  78.1159210
  20.9700394 101.0822678  77.3658848  34.5798111   7.5897443  17.8637791
  34.0954328   6.8731493  18.2737803  34.1940737   7.6713663  16.9915545
  78.2664156   5.1813513  29.7352982  77.5806189   5.3117192  29.0803790
  77.7949095   5.1131177  30.5655146  67.8253508 100.2282810  85.6873322
  67.8679800 100.9830570  86.2744617  67.0788240 100.4106331  85.1166439
 106.1040115  52.9026604  66.0070944 105.2784061  52.5690460  66.3582659
 106.7549706  52.2497559  66.2643862 113.0499649  75.8838987  52.1839380
 112.3374462  75.6246185  52.7681684 113.4120655  76.6745090  52.5840092
 110.2774429  94.0693569  80.2132893 110.1803589  94.2091942  79.2713499
 109.4735336  93.6191750  80.4726982  12.0351481  42.3435354  73.1621456
  12.7551115  42.9741287  73.1775379  11.6905487  42.3516130  74.0551281
  20.3621817  69.6116877  80.8100319  20.7308698  69.1473961  80.0585461
  21.0872674  69.6750450  81.4317036  30.6841755 103.9085865  55.1066494
  30.4269862 104.6155071  54.5147419  31.0831666 104.3548393  55.8535719
  34.5965481  90.0661087  72.8806305  34.4796991  90.3106499  73.7986612
  35.1890111  89.3147373  72.9064608  42.2765255  62.3956299  47.4335527
  42.6227713  63.2418346  47.7168989  43.0538702  61.8645239  47.2606516
  13.1727028  49.7094774  87.7758408  13.4403884  48.8642550  88.1366348
  13.7361693  49.8331213  87.0120049 106.7644596  20.1440668  16.7704058
 106.0438633  19.6301544  16.4058828 107.4381447  20.1277256  16.0906219
 100.3402424   4.6235284  15.1775372 100.8085155   5.4179108  15.4342604
  99.7313023   4.9134046  14.4982743  90.8857727  82.7793121  79.3152761
  91.0979080  83.2555008  80.1180649  91.6830444  82.2917652  79.1082191
   4.7979152  98.9242744  88.8969421   4.1807812  98.5549927  88.2652760
   5.5865657  98.3902645  88.8015747   3.6383852  49.5496941  91.0792923
   3.5472524  49.6820498  90.1356792   2.7543983  49.6733904  91.4249802
  16.5926480  53.9429426  59.5192051  16.6280985  54.1614771  58.5879612
  17.3598993  54.3739557  59.8957491  11.4395952  77.7500486  62.6535749
  10.4847848  77.7962065  62.7029610  11.7151999  77.5316954  63.5438538
   6.7369294  62.5952625  54.5815802   7.0789379  63.0231571  55.3665495
   6.1495614  61.9170523  54.9151325  82.2822380  14.9328208   8.0415213
  83.0975533  15.1888037   8.4727573  81.9596958  15.7399440   7.6405847
  41.4570189  91.5460110  74.4359970  42.0549297  92.1978283  74.0701103
  40.6828594  92.0477295  74.6913099  12.1074271  81.2022114  89.2065430
  11.2221193  80.8807755  89.0358257  12.1248984  81.3666058  90.1493549
  33.6192608  91.6870213  56.1777782  34.2996836  91.1235428  55.8093357
  33.9964342  92.5663948  56.1517000  71.4832735   1.8689577  71.5649414
  72.3683691   1.9992903  71.2245846  71.6107178   1.4042050  72.3919821
  41.2045097  94.4224167  84.4801617  41.1695480  95.3398895  84.2095280
  40.4219246  94.0288734  84.0942574  18.9410222  58.8625479  87.7472591
  19.8860788  58.7629080  87.6324940  18.5576379  58.3284712  87.0515537
  88.2883835  13.1769609   7.2390521  87.3934650  12.8376877   7.2232521
  88.4450912  13.3965671   8.1574458   1.1307678  69.9383497  87.6473904
   0.9777288  69.2363501  87.0149231   1.1947529  69.4908285  88.4911060
  20.6224251  63.9455509  70.5998516  21.1416268  63.2707119  71.0371828
  19.7303355  63.8043451  70.9168243  21.8997431  48.6147547  55.8563137
  22.4195766  49.3691921  55.5791330  22.5466776  47.9717636  56.1466122
  10.3143537  63.7685347  70.1271105  10.5643201  63.0244732  70.6749392
  10.1003778  64.4632673  70.7498407  12.8352380  63.5793257  73.4537315
  12.2501802  62.8660250  73.1985044  13.2438231  63.8587523  72.6344538
  16.3474834  91.4646816  85.2872753  16.0663092  90.7756519  85.8892727
  15.8499122  91.3005638  84.4861984  19.2960703   6.4046836  16.4654040
  20.2056026   6.3115871  16.7488050  19.2909527   6.0782063  15.5656159
   4.1047785  47.9860926  72.1685982   4.1658169  47.7981758  73.1051874
   4.8480850  47.5228453  71.7824268  46.5639782  78.7591171   1.0643061
  46.4095736  79.4173050   0.3866794  47.0678520  79.2197514   1.7352438
  77.0641899  91.6295910  20.1658964  77.1254301  91.6960812  21.1188173
  77.9339695  91.3408756  19.8895609   8.5422409  94.0878105  84.0268135
   7.8998762  93.6651993  84.5969009   9.2721438  94.3037605  84.6071911
  94.8175812  12.1147382   8.6972874  94.6599102  11.9287550   7.7716637
  94.1169548  12.7189052   8.9429241  94.1015911  25.6761122   6.4633018
  95.0134754  25.4708314   6.2569898  94.1212845  26.5877175   6.7545372
  34.9459767  45.9166193  78.5971451  34.0648818  46.2872696  78.6473751
  35.4418349  46.3858986  79.2680645  14.2828524  84.9888515  69.4904375
  15.2290261  85.0435162  69.6246004  13.9545155  84.5508575  70.2756643
   6.8648428  87.6836395  67.6565361   7.2614312  88.1802559  68.3723068
   6.2754512  88.3062458  67.2308350   6.3712716  12.0495844  27.3838687
   6.9637728  11.5372407  27.9340315   6.5161794  12.9560101  27.6552105
  81.9411469  35.1390791   5.9807664  81.3918877  35.6742787   6.5535736
  82.7047920  34.9220681   6.5155399 110.0261593  80.8001041  73.3345270
 109.1175270  81.0639763  73.1896448 110.2378654  81.1380291  74.2047071
  91.7727661  28.8931489   7.8773683  91.0023022  28.4115148   7.5762808
  91.5259838  29.2240453   8.7409872   7.7213103 106.0433578  77.5534773
   7.4629569 105.5341053  78.3216858   8.5994297 105.7272625  77.3408175
 107.5150490  16.0410094   1.5144902 106.6852760  15.5646789   1.5431550
 107.5562000  16.3972116   0.6269895  35.6554246  46.7091513  58.8305902
  35.7581258  46.6971493  57.8789902  34.7090578  46.7478704  58.9688873
 105.6727028  55.8141470  81.8042850 106.0065937  56.6486835  82.1333599
 106.4515686  55.3470087  81.5019989  26.1501241  69.8106766  37.2427368
  26.1517978  70.3599358  38.0266690  26.8828773  70.1367521  36.7202616
  72.9276562  36.5403080   3.9081627  73.2887411  36.0202646   3.1902459
  71.9822407  36.5310717   3.7586880  31.6295409  63.0130339  72.5034142
  31.5296912  63.9648676  72.4868250  31.0118222  62.6958895  71.8445730
  51.4220667  29.9244547  84.0831661  52.2855711  29.5438647  83.9227104
  51.4459085  30.7698917  83.6349392  14.5902300  96.5719795  82.6209641
  14.0804708  97.0041370  83.3062458  13.9434493  96.3291264  81.9584465
  31.8713331  65.8047342  72.5195265  31.4649963  66.6585350  72.6683331
  32.7047682  66.0069513  72.0944071  71.7472506  47.1709585   1.6316710
  71.7383766  48.1280422   1.6195886  72.6668358  46.9416332   1.7658289
  34.2497921 101.1762142  68.7054014  34.0091515 101.2676144  67.7834606
  34.5234752 102.0545483  68.9697123   4.5352745  96.2452316  90.8378792
   4.8351750  95.7761860  91.6165257   4.5594200  97.1682739  91.0901737
   9.6694887  96.9425488  90.3571415  10.1533747  96.6003990  89.6054649
  10.0763047  97.7898312  90.5383682  99.3248272  10.9014809  13.2025743
  99.4512367  11.0758710  14.1352260  99.8602295  11.5606737  12.7609336
  34.7805095  82.3243141  61.7506313  35.7074928  82.1203327  61.8744183
  34.7414398  82.7513599  60.8948612   0.0411542 106.4367867  70.6054354
   0.2031209 107.2737122  70.1700592   0.7896147 105.8917141  70.3626585
  41.3363552  74.1132927  39.4984579  41.2776423  73.1631947  39.3979430
  40.9112644  74.4636774  38.7156701 106.9387341   4.9749863  24.3651819
 106.8323517   4.1342646  23.9200950 106.2001228   5.5022776  24.0608096
  25.6043696  86.7425728  76.0594177  26.0188937  87.0194626  76.8765688
  24.6728873  86.9189167  76.1916256  19.7766137  98.3427238  71.1395168
  20.5477023  98.6855507  70.6877184  19.7415888  97.4200726  70.8870745
  23.6761093  32.5246072  17.0257664  23.7995601  31.8855810  16.3238847
  23.5110021  33.3506823  16.5712655  41.7131472  71.7025948  46.1522627
  41.2221432  71.2039709  46.8053484  41.8857384  72.5444889  46.5737581
   6.2439084  49.6110868  91.4491177   6.6593206  49.4115400  90.6101608
   5.3061837  49.5208216  91.2795448  34.6922469  36.9745922  87.4803352
  35.5433559  36.7745829  87.8700066  34.8969340  37.2523856  86.5874958
  84.4676685  37.7050567   5.2531105  83.7460041  37.1135211   5.4664600
  84.9961853  37.2194314   4.6198088  55.7847452  83.4516621   7.1618962
  55.1621485  83.2827091   6.4547467  56.3052034  84.1923618   6.8509048
  50.2724504 100.3299999  66.4188766  49.3658590 100.6353569  66.4518309
  50.6422997 100.5860901  67.2637844  25.6370258  37.3319149  79.1162395
  25.3914404  36.7009807  78.4395981  25.8407736  38.1332254  78.6339283
   7.3057872  56.1386108  61.2117147   7.2350371  56.8109941  61.8893051
   6.5810978  55.5397940  61.3919163  75.7594872   7.4197376   9.9840653
  75.3977871   7.0084614  10.7690859  74.9993515   7.7913344   9.5364684
  88.9359570  13.1709850  71.1488438  89.4679642  12.4410987  71.4658070
  89.2197323  13.2988441  70.2436590 103.2119274  12.2313964  10.4133081
 103.9349365  12.0930338  11.0251498 102.8139591  13.0550575  10.6951451
  25.6465507  79.0551186  74.6520376  26.0350513  79.3631029  73.8332272
  25.9004092  79.7125673  75.2997684   7.2601140  96.4077473  82.7338886
   7.2119272  96.8759346  83.5673809   7.4909431  95.5108929  82.9759502
  91.1701584  51.2723732  67.1384144  92.0860863  51.0253859  67.2660828
  90.8647919  50.7030725  66.4320993  11.8800867  34.5691967  86.0492229
  12.6661766  34.0289783  85.9688473  12.0210409  35.2900100  85.4353809
  93.1528950  94.0801907  89.0968895  92.4173450  94.6395969  88.8473892
  92.8318214  93.5840130  89.8498535  25.9847045  31.2350917  90.6627750
  25.8478642  30.4137421  90.1906586  26.0798645  30.9721613  91.5782166
   1.0584970  77.0437956  83.7016678   1.2063062  76.7344666  82.8079700
   0.3310929  77.6611423  83.6242199  79.6646833  63.0064917  56.9840384
  79.2725229  63.6603212  56.4052868  80.0027084  63.5125685  57.7228546
   7.9431951  49.5013571  57.0351028   7.7422613  48.6345100  56.6823578
   7.2140032  49.6951675  57.6241255   2.1349744  30.8093691  18.0161560
   2.2426866  31.6388249  18.4815907   1.4319000  30.3607059  18.4858572
  27.5202584  60.2935886  79.7117805  27.6715589  59.6394682  79.0295315
  27.8020811  59.8658752  80.5204010 108.5430431  22.0227265  86.1228085
 108.1950092  22.5857806  86.8142319 107.7880287  21.5159535  85.8238697
  21.4895415  58.4414244  87.6209545  22.2095680  57.8996181  87.2980976
  21.3917756  58.1877279  88.5387325  90.4816818  51.5559292  79.9529076
  89.6522522  51.6063833  80.4280090  90.6755924  52.4619675  79.7126627
  21.1598992  75.4719305  85.9069061  21.2272644  74.8825073  86.6580868
  21.1943173  76.3496208  86.2873173  94.6485901  71.8749285  83.5625553
  95.4294300  72.4282598  83.5441113  94.5789051  71.5892935  84.4734859
  26.8393421  68.0872679  89.7611809  27.4989653  67.8665924  90.4187775
  26.0028768  67.9582500  90.2082920  21.2861729  68.3482075  78.7847853
  21.3539338  67.4715996  79.1631985  21.8921947  68.3367872  78.0439520
 103.5717773   8.5092175  15.3243911 104.0750599   8.9735782  15.9932041
 102.7932930   8.1959695  15.7849014   3.1046572  62.1906948  87.8518963
   2.6826116  61.9497156  88.6765385   3.3353019  61.3543272  87.4475193
   1.9733013  53.4243774  80.4695511   2.5464851  52.9636812  81.0822964
   2.1022771  54.3510962  80.6715107  19.5371544 100.1236916  88.8525009
  18.5813916 100.1759338  88.8480663  19.8200583 100.8654976  88.3177853
   6.3457316   8.4946972  34.0550756   6.4827383   8.8498974  33.1768417
   7.1867096   8.6152065  34.4960570  62.3989344  93.1291294   2.2761323
  61.4440107  93.1329823   2.2102316  62.7002907  92.9816151   1.3796639
   5.9502167  68.0645990  61.1976242   5.9275508  67.1705914  61.5388870
   6.5829009  68.5177422  61.7549419  16.4867318  95.4880810  76.3237333
  16.0422754  95.4723740  75.4761219  15.9906530  94.8745632  76.8657064
   9.5608008  19.2895937  13.6738050   9.1692007  19.7768331  12.9489064
   8.9885110  18.5310709  13.7893891  31.0545635  91.1770153  23.4110403
  30.9124660  90.8517933  24.3000102  31.8793130  90.7752037  23.1379747
  27.1290827  69.3311977  63.9229822  26.9480252  68.8026714  63.1457376
  27.8914595  69.8576260  63.6823845  29.9365926  67.1921921  61.7992544
  30.2159905  66.8372202  62.6431513  29.6759295  66.4242077  61.2908411
   6.9499391  35.2248549  62.4023962   6.0221100  35.1096106  62.1972513
   6.9608796  35.4879856  63.3226538  98.3030128  29.8137021  15.4976082
  97.4135399  29.6631193  15.1776361  98.8572216  29.2877078  14.9210453
  48.9450836  99.8459530  62.3744869  49.3083668  99.3736458  63.1236124
  48.2092428  99.3064499  62.0851564  24.4113255  91.0326481  89.7857380
  24.6589851  91.6106224  89.0640450  25.2426314  90.7857704  90.1909733
  37.5519419  82.2390175  85.8697033  38.4112048  82.4386883  85.4981709
  37.2024584  83.0895424  86.1355877  83.9827728  91.0623455  28.0106211
  83.2148647  91.0893059  28.5814333  84.5983219  91.6783428  28.4079742
  83.0461121  66.1455059  14.1646504  83.5573959  66.7359018  13.6112535
  83.3649158  65.2711821  13.9406931  87.3275661  19.7324204  10.0350225
  86.4628696  19.5847213   9.6519834  87.2128963  19.5416331  10.9659815
 103.2504654  68.7939262  42.6936150 103.2077122  69.6555758  43.1082964
 103.6168098  68.9637041  41.8257427  10.7555211  65.6662035  92.4627304
  11.3637984  65.5620289  93.1944275  11.0449588  65.0216055  91.8170071
   9.2113912  16.1080825  75.2633381  10.0873697  16.3338161  74.9503899
   9.2757446  16.1644495  76.2167072   7.8294683  41.6753435  51.2639475
   7.0785570  41.6706848  51.8575287   7.7981639  40.8220148  50.8314133
 112.1136761  70.1031113  89.1228771 112.1701527  69.4848442  89.8514271
 113.0154037  70.3926420  88.9839935 108.5900593  65.5846024  60.4842472
 108.8259888  64.7659159  60.0479841 108.8603020  66.2688446  59.8718691
  20.0103045  31.3794518  34.1916585  19.3727016  31.6311979  34.8597312
  20.1291180  30.4379201  34.3166804  22.3395157  75.0022459  71.8173885
  21.9933653  74.2195129  72.2460413  22.3196864  74.7925663  70.8836460
  16.1687195  66.3653803  88.1308746  15.7241595  65.5246639  88.0222893
  17.0517552  66.2147093  87.7935696   3.0704758  91.6419506  74.0385056
   2.6610237  92.1172619  73.3155537   3.8974446  92.1000576  74.1884518
  12.9021454  52.8767967  67.8231668  13.3111298  53.3108568  67.0744658
  13.6088419  52.3677969  68.2203245  21.8843699  55.4145336  73.9176369
  21.3982129  55.4202986  73.0931091  22.4635410  56.1744118  73.8595152
  49.2097282  89.2238712  65.7621956  49.8462200  89.9379444  65.7275915
  49.1302490  89.0187931  66.6937876 113.4678650  93.4063530  62.0731688
 113.4802818  92.6081848  62.6013708 112.9112148  94.0102577  62.5647736
 102.3164082  14.3047059  15.2732849 102.5551891  13.4370124  15.5993581
 101.4135742  14.4302571  15.5654252  88.5182858  98.4482288  19.5163238
  87.8289604  98.9748096  19.9210203  88.0830479  97.6318645  19.2706919
  62.5854301  65.5094433  13.5203731  62.3902512  64.6093178  13.2597864
  62.1886730  66.0483170  12.8359520  48.2280684  47.3784733  85.1027489
  48.8171339  48.0257177  84.7150612  47.5632858  47.2268867  84.4309521
  89.9078751  63.0650091  81.7894363  89.2515945  62.8236771  81.1357594
  89.7125530  63.9783239  81.9990635  84.5651054  85.1178455  10.8205962
  84.8245811  84.7432232   9.9788344  85.2942085  85.6883812  11.0637832
  85.5294514  22.3576236  28.0293226  85.8339691  22.8262544  28.8064218
  86.3070011  22.2798228  27.4765205  26.7828751   1.5192726  63.8961983
  26.7190909   1.5891655  62.9436874  26.8847418   2.4224719  64.1963434
  88.8130665  77.5461721  76.7646408  88.6259079  77.7106333  75.8404350
  88.0522346  77.8952217  77.2288895  21.3408327  88.6172581  58.0901909
  20.4268098  88.7287331  58.3516598  21.2945247  88.2113552  57.2245502
   3.2485220  55.7750988  84.3949127   3.5175461  55.4902315  83.5215759
   4.0678549  55.9960842  84.8377323  27.3290586  28.1329656  73.9600325
  26.6028881  27.7713656  73.4519434  27.7940869  27.3653865  74.2929029
  15.1955783  67.9561281  72.8302145  15.1440406  68.6525249  73.4848976
  15.2558935  67.1497965  73.3424854   6.9201374 101.5480804  88.8930607
   7.0293176 101.2278557  89.7884750   7.6250219 102.1855545  88.7790489
  22.2772980  74.5567465  48.8565731  23.0512357  75.1186085  48.8961029
  22.6289296  73.6679029  48.8061428   7.9083693  81.6760635  38.2148147
   8.1748372  82.1756744  37.4430537   8.4064996  82.0633793  38.9345980
  62.4670506 100.3600502   3.2677019  63.2652283 100.2409554   2.7529541
  61.7589474 100.1166344   2.6714084  15.1286805  81.5355396  73.6747885
  15.6477654  81.8605137  74.4104338  14.4040930  81.0621262  74.0835524
  12.7909124  47.7066565  85.1757050  12.1195376  47.9653597  85.8070183
  13.5145569  47.3855305  85.7137108 100.9526157  90.3028774  85.3544998
 100.7147121  89.3757439  85.3466034 101.7647266  90.3374577  85.8599854
  58.3727312  72.8085661  90.0889778  59.1588831  72.2681427  90.1673317
  57.8834343  72.6376915  90.8937263  80.3107643  20.9267068  -0.0713677
  79.6736717  20.2958226  -0.4065255  80.7051659  20.4905748   0.6839266
  88.6608505   8.1780446  10.5286503  88.6408806   8.3116472   9.5810312
  89.5869923   8.0482936  10.7327724  99.9786758  19.8345709  20.8293080
  99.2599106  20.4456472  20.6674910  99.8337460  19.5257461  21.7236519
  84.7678661  25.8034825  10.8091128  85.3288841  25.6580353  10.0473166
  85.3467369  26.1988735  11.4608812  24.9126434  94.9713516  84.4672585
  24.3023443  94.9036884  85.2015591  24.3535399  95.1136303  83.7034607
 100.7157803 102.6023960  90.5314445 100.9266281 102.9671764  89.6719646
 100.7563972 101.6543484  90.4057884 112.5218868  55.2667522  63.7188768
 112.4518871  54.3164253  63.8094854 112.2137451  55.6106377  64.5573425
  26.8136835  72.4961567  68.9761257  25.9055448  72.4554825  68.6763573
  27.3020816  71.9851875  68.3306694   4.8053652  64.8467302  55.4507017
   5.5255318  65.0287342  54.8469925   5.1447058  65.0958681  56.3103628
 107.5951099  28.2331705   8.3477753 108.4465694  28.2040739   8.7841254
 107.0265675  28.6967278   8.9626819 101.8550682  82.2362328  77.7453804
 101.9858074  81.8827629  76.8655014 102.7397060  82.3378372  78.0965662
  27.0373249  66.0308599  71.0629511  27.8677344  66.0748625  70.5889034
  26.4200664  66.5095806  70.5097342  73.6043739  89.8010349  42.3278475
  73.4831667  89.6755600  43.2690191  73.0747366  89.1133404  41.9243670
  14.4514561  71.0263538  61.8203449  14.1913354  71.2474012  62.7146101
  14.3523514  70.0756216  61.7701578   4.2006162  10.2833462  26.0323095
   3.2481056  10.3643811  26.0811830   4.5282352  11.1401153  26.3058829
 111.0724831  59.8960114  80.7673931 111.4543819  59.3834019  81.4798641
 111.6754246  59.7733164  80.0341511  19.1403067  79.5681715  65.5811119
  18.8953722  79.9788666  66.4103079  18.3618212  79.6560574  65.0311422
 104.0645313   7.2497648  30.2237773 104.3890858   8.1414807  30.3492284
 103.1169701   7.3503292  30.1328945   0.8297712  98.2534981  11.0071754
   0.4288638  97.4010944  10.8371699   0.1138382  98.7918949  11.3445222
 104.8015976  35.8219051  71.8842506 105.6555462  36.2407064  71.9919825
 104.2195606  36.5313339  71.6118908  69.5739365  42.7623749   2.8884432
  69.9087954  43.5552502   3.3073109  68.7141085  43.0143070   2.5516084
  72.5047064  68.5759449  27.5676942  73.0861902  69.3320417  27.6478171
  73.0460739  67.8292418  27.8238058   4.0450442  87.2177315  64.9591780
   4.1249472  87.4162579  64.0262079   3.6299908  86.3556194  64.9859190
  60.6143761  52.0038176  90.9419632  61.4183664  51.6052914  91.2751389
  60.7233381  52.9397535  91.1104298  49.2838335  98.3160877   8.1625503
  48.7409115  98.4102631   7.3798621  49.4532013  97.3760509   8.2248735
  67.7862072  72.5340414  31.5271854  68.3815622  71.8940306  31.9172812
  67.3503065  72.9426050  32.2750497  75.5309677   7.9475522  71.5248299
  75.5463266   7.7308142  70.5926132  75.6959486   8.8899642  71.5543699
  11.8772089  66.8942165  55.3031301  11.9828248  67.7868652  54.9741125
  11.7435646  66.3636971  54.5176888   4.9972627  49.7471237  77.9456854
   4.4200766  50.0312901  78.6544418   5.8188671  49.5213366  78.3818293
  59.8411274 100.5735970  30.3583598  59.2141151 101.2056255  30.7099581
  60.2890491 100.2261543  31.1296487 112.8641605  11.7423439   9.3451458
 113.0570126  11.5953946   8.4191632 113.6691189  12.1190882   9.7005945
  65.9827471  93.5682106   8.1782848  66.3817310  93.0239296   8.8571107
  65.3680849  92.9844284   7.7337474  29.5991063  30.2558231  80.2838612
  29.0840411  30.3321981  81.0870457  30.2310133  30.9729433  80.3354549
  87.2815990   5.9211987   5.2676708  87.2700691   4.9832025   5.0772464
  86.3864422   6.1210132   5.5415535  29.4442558  46.8321800  68.8305712
  29.1086841  46.4343214  69.6338987  29.3117476  46.1634636  68.1586361
  13.1800294   4.0714744  38.5024524  12.6118422   4.4363305  37.8240156
  14.0659750   4.3004084  38.2215190  89.2693138  22.8998113   0.5025906
  88.4884644  22.9616213  -0.0475802  89.8684597  23.5536647   0.1424030
   5.7151002 100.5026627  84.6405220   6.1047781 100.0835133  85.4077911
   6.3545340 100.3648758  83.9416885  20.9946036  72.2483206  64.3687916
  20.9013724  71.4808083  64.9331188  20.2580810  72.8114700  64.6067619
 101.6326904  30.7418108   5.5398309 102.1156406  30.0104403   5.1550072
 102.3016167  31.4025283   5.7193589  14.8762918  52.6900387  78.9951372
  14.4594121  53.4708881  78.6308384  15.8119106  52.8262997  78.8458681
  81.1578369  65.5526781  20.4451561  80.8345413  66.0237360  21.2131500
  80.6706810  64.7287178  20.4469514  33.4059024  77.1113968  11.3406336
  34.3044496  76.8357229  11.1593890  32.8757095  76.6348696  10.7018423
  81.0353088   7.9666996  72.0031548  80.3357792   7.4846685  72.4442148
  81.7909813   7.8769523  72.5837898  67.2054434  30.8895159  15.8344972
  67.6990223  30.9786677  16.6497648  67.7249384  30.2846169  15.3049195
  69.9725437  30.2722120   0.6914058  70.2174759  31.1118436   1.0803285
  70.7857704  29.9366665   0.3141813  30.5703759  62.7392483  69.6789551
  29.7145605  62.6993179  69.2520857  31.1889172  62.8821993  68.9625740
 103.6069012  38.8963103   5.8044714 103.4478855  37.9727554   5.6095606
 102.9146576  39.3626285   5.3358811 113.1201822  70.2758455  92.3840809
 113.9129414  69.7583389  92.2428226 112.6253963  69.7823477  93.0382061
  23.5556769  93.2353687  73.4904575  22.9257321  93.9481258  73.3837891
  23.7488651  93.2247448  74.4279003   1.2940231  56.9925833  83.0002785
   1.4355053  56.2935209  83.6386585   2.0336215  56.9193697  82.3970604
  30.8329225  86.1247540  85.9837914  30.4976606  86.6674614  86.6974449
  30.1605988  86.1799717  85.3047085  65.7059240  99.2497444  77.8796482
  65.9263802  99.6438599  77.0356655  66.5525675  99.0675449  78.2873631
  75.6303596  99.1587639   7.6598519  74.9044132  98.7527084   7.1861941
  75.5335522 100.0956249   7.4891090 112.1822548  15.9245014   4.5555031
 111.7548275  16.3852239   3.8335097 112.3602104  16.6066504   5.2029866
  48.6904335  76.4276218  80.6737328  49.5247793  76.2193775  81.0941219
  48.9329958  76.9294596  79.8955536  66.5629244   9.5334077  28.7957573
  65.7254124   9.4924498  28.3340979  67.1873188   9.8293847  28.1333661
  34.5501041  82.5857925  80.3090572  33.6344409  82.3959160  80.1047611
  34.9698877  82.6879025  79.4548988  16.1143899  85.2164841  87.2438526
  16.4188361  84.8028374  88.0515957  15.6077981  84.5350456  86.8019962
  91.4541245  22.9964423  10.2653003  90.7839203  22.4635172   9.8374724
  92.2014427  22.4066997  10.3650916  39.2433858  69.5032167  37.8697205
  38.3767438  69.8893833  37.7430773  39.1388750  68.9220476  38.6230803
  35.3913069  78.8856459  73.9776707  34.6138930  79.4066000  73.7765169
  36.0908890  79.2920256  73.4661341  95.6806946  37.5986791   3.4884995
  94.8793697  38.1125569   3.3882973  95.5996323  36.8996215   2.8396687
  49.7957087 103.0496025  87.0734119  50.1801205 103.1932163  86.2086391
  49.0259647 102.5058079  86.9060516  88.1427956   4.3171608  81.6128445
  89.0157986   3.9261678  81.6478539  87.5553703   3.6174986  81.8985558
  78.8984108   2.4727970   1.2438385  79.5973873   1.8274912   1.1378159
  78.3525801   2.3648073   0.4649690 103.7278080 101.1753464  90.5943966
 102.8921795 100.8111572  90.8865070 103.4903717 101.9799042  90.1333809
  33.3844161  98.9098740  90.1340675  32.9723716  99.1832161  89.3144798
  33.9669657  99.6342278  90.3625011  12.3254371  92.1404552  73.8607168
  12.6971209  91.2620068  73.7807417  12.6971197  92.6257610  73.1241226
   3.3066112  87.8261375  45.9976149   3.8976976  88.5117626  46.3086796
   2.8511068  87.5273609  46.7846870  33.8813162 105.2377701  88.9053917
  32.9763126 104.9275303  88.9362431  34.0169787 105.4901695  87.9920864
  31.1890054 100.1913261  78.6497068  30.2867627 100.2545929  78.9630604
  31.1201119 100.2888966  77.6999903  72.8934288  46.5135098  14.3907857
  73.7464619  46.4138985  13.9681244  72.7924919  47.4582720  14.5068407
  75.3931808  55.7400465   4.6729699  74.4584370  55.9096098   4.5557794
  75.4461384  54.8003292   4.8472065   4.8256737  76.9538069  63.7784386
   4.6039155  77.4579287  62.9955435   5.6223172  76.4796066  63.5402727
  31.4777565  93.8060951  75.2807570  31.4499450  93.0273438  74.7248840
  31.2587786  93.4841537  76.1551857  62.8659487  99.6324253  86.6342735
  63.1635141  98.7526131  86.4027214  62.8058195  99.6212673  87.5895119
   3.5680920  64.4966793  72.7099323   3.8409427  63.6044598  72.4960804
   3.8759083  65.0243902  71.9730425  49.6063519  86.5312576  68.9835548
  48.8327599  85.9726524  68.9076614  50.2890253  86.0613155  68.5046577
 100.4002094  15.8839798  70.2674675 100.3383446  16.7697763  69.9100208
 101.3244438  15.7812703  70.4943514   4.2096809  30.6236553   3.8949773
   3.6313370  30.3897810   3.1689933   4.5849490  29.7905564   4.1801998
  29.7539043  80.8166885  83.9970398  30.6328750  80.4391766  84.0305805
  29.9003673  81.7531013  83.8632107  21.4147949  71.9249010  71.5838385
  22.1268368  72.2232533  72.1497107  21.8323803  71.3168001  70.9738636
  52.0125437 105.3768158  72.8586292  51.5234756 106.1171818  72.4995947
  51.3463879 104.8274612  73.2717609  93.5742664   2.6974183   8.3943212
  94.1287804   3.3779743   8.0127501  93.1106758   3.1376854   9.1066980
  88.3088875  34.6668577   7.0732254  88.1847477  34.8768234   7.9988253
  87.4211597  34.5723534   6.7279100  69.8826790   3.8027883   6.9729936
  69.7698116   4.6525946   6.5471745  69.2729759   3.8216534   7.7106494
 112.6958847  56.6782188  20.8424354 112.6653099  55.7479954  21.0659933
 111.7779732  56.9482040  20.8147788  33.6694169  77.4928999  76.0166264
  34.2613649  78.0092382  75.4696131  33.2056880  76.9268227  75.3995895
  87.8783703  49.7906494  28.2760954  88.4706402  50.5425644  28.2671261
  87.7948570  49.5405531  27.3559260  32.9878902  83.5869694  83.0119991
  33.8905120  83.8854599  83.1233978  32.8944087  83.4536076  82.0687580
  33.1485200  83.2508087  50.1928329  32.3518944  82.7753448  50.4285288
  32.9410315  84.1683483  50.3697777   3.4107575  76.7969275  78.3077717
   4.1368529  77.3457670  78.6040735   3.6645705  76.5184689  77.4278450
 100.9323215  19.9821079   2.0774820 100.7602787  19.0520942   1.9301535
 100.2892971  20.2431393   2.7367371  12.1371973  78.3134985  83.2434940
  11.9738519  79.1997051  83.5662842  12.2539008  78.4201717  82.2994423
  37.0187664  95.3384113  66.3700151  37.3142719  95.8428764  65.6121063
  36.3920808  95.9125519  66.8103123  20.6382155  53.9487028  80.9843636
  20.0300336  53.4310055  81.5119457  21.1072540  54.4887447  81.6204453
 103.2286263  45.9878874   2.2689985 102.9188156  45.3430557   1.6330421
 103.3153820  46.7977047   1.7661116 106.9926357  54.7654581  13.3498275
 107.2480583  55.5834198  13.7763584 106.0433006  54.8343897  13.2486379
  82.6513481   2.8088114  92.3775482  83.3105183   3.2720745  92.8943825
  83.1437588   2.1329644  91.9117260  46.7871284  98.8465977  75.9757328
  46.6604233  99.4907951  75.2791834  46.6935778  99.3480682  76.7856741
  23.1534457  34.0603614  11.1909854  22.4612594  33.5187626  11.5701687
  22.9933214  34.0279913  10.2478290  98.7076092   0.7250682  86.4725876
  98.2841778   1.0956237  87.2469425  98.1235981   0.9515428  85.7487965
  97.6134682  25.7907867   4.2216352  97.9417610  25.3395629   3.4439108
  96.6648388  25.8222055   4.0977597  21.0422707  32.2585130  31.6333747
  21.9871473  32.3972392  31.5686250  20.9017015  31.9866586  32.5403309
  30.2263236 106.1639118  63.3830500  30.3294587 106.0419369  62.4392700
  29.2943764 106.0155201  63.5433054  13.3402491  49.7348404  11.1117756
  12.8775704  50.5723619  11.1386454  13.6537671  49.6055841  12.0068908
  53.2142258  86.8158436  92.2610283  54.0714693  86.3899994  92.2563934
  52.7499962  86.4277649  91.5193272  87.0327950  11.3076663  53.1290054
  86.2205219  11.2526262  52.6255989  86.8350029  11.9213378  53.8364744
  22.5992155   7.2072524  14.4752252  22.2009254   6.6277564  13.8257790
  22.8341317   7.9935759  13.9825368  28.8064837  90.2102947  44.9253750
  28.2981062  90.9736729  45.1992798  28.3436251  89.4646358  45.3074646
 101.5791416   0.0248610  65.0370979 102.2099590   0.0258136  65.7570314
 100.9461212   0.7032039  65.2724075  42.5357580  73.2664537  58.9563417
  42.2295141  72.8283882  58.1622696  43.1196594  73.9556551  58.6396551
  61.8900537   8.2443684  48.9934063  61.1250162   7.7392501  49.2687416
  62.3696280   7.6547307  48.4115410  64.8700523  72.9571533  64.4728136
  65.3008842  72.5057077  63.7469959  64.0782499  73.3310127  64.0861464
  53.6865187 106.5249348  34.7557092  53.6483383 105.8338928  34.0944743
  54.2108345 106.1504078  35.4635620  16.2494707  56.0292959  81.6518974
  16.0453129  56.7334795  81.0365295  15.4234588  55.5575609  81.7586803
  20.0786901  95.2783585  86.0502148  19.9207771  96.0237598  86.6295815
  19.2422295  95.1386070  85.6063271  30.6780601  88.3469296  76.8647289
  31.6007090  88.1239700  76.9881725  30.2647114  87.5226021  76.6081095
  67.4015188  24.9124622  58.4809637  68.1467009  25.5095863  58.5471678
  66.6335869  25.4772091  58.5680151  33.0652070  88.3290195  70.7281113
  34.0199304  88.3963108  70.7425737  32.8713727  87.8445816  69.9256277
  58.9885902  99.7807884  68.2410908  59.7974586  99.8460770  67.7334499
  58.4053612  99.2531109  67.6955414  26.6799760  85.9572792  48.8061762
  27.0871544  86.0377312  47.9436398  25.9147477  85.4014397  48.6588907
   8.9072526  22.7162361   3.2855022   8.5827190  21.8652630   2.9909575
   8.5282123  22.8284597   4.1572624  73.1391907   7.9175824  81.4630699
  73.5886002   7.0753187  81.3934040  72.2676992   7.6975501  81.7921925
  53.1734037  94.3999863  89.4353962  53.6139965  93.6554909  89.8450756
  53.4159136  95.1501560  89.9782276  77.3872280  29.2690063  81.2723732
  78.0829477  28.6214042  81.3855743  77.1730423  29.5485091  82.1624470
  45.9697771  83.8872051  89.8719692  46.8222857  83.9780426  90.2976513
  45.3483438  83.8053417  90.5954075  42.5295162  63.4626865  61.8085909
  43.2285357  62.9022741  62.1455431  42.0245695  62.8930330  61.2282801
  19.3831193  70.5114126  55.0981617  18.5486341  70.0441074  55.1367712
  19.1994178  71.2861586  54.5668840  93.6092567  16.1380076  90.6710815
  92.9690266  16.1041832  89.9603081  93.4134674  15.3691471  91.2065792
 108.6815929  29.6135521  13.8571703 108.2795048  29.3344665  13.0345738
 108.0670643  29.3279028  14.5331764  22.4171662  51.2853765  84.2841053
  23.2333612  51.3022995  83.7843418  22.0859957  50.3943396  84.1718197
  60.8750153 103.9175987  37.2287965  61.0093451 102.9701519  37.2516704
  61.7159796 104.2853642  37.5003839  28.2361293  43.2170248  78.9290142
  28.4667444  42.6305628  79.6495056  28.9801931  43.1636667  78.3292198
  34.4774032  85.8237934  65.4920816  34.2337656  85.0659943  66.0237074
  35.2011967  86.2288284  65.9698915  14.0100563  55.0593996  70.3861856
  14.8127341  54.5634270  70.2250910  14.2356634  55.6545544  71.1011171
  91.4675808  32.9351950   8.5618150  91.3302517  32.2053266   7.9579395
  91.2350845  33.7128448   8.0544329  13.7141550  59.0839624  88.2587624
  13.5683870  59.8355770  88.8332653  14.3151164  59.4082069  87.5879860
  97.5669765  23.5475397  29.4906139  97.0204926  22.7659702  29.4085574
  97.1297264  24.2035937  28.9478064  36.2242436  99.7573471  42.0058107
  35.5854321  99.6007919  42.7012539  36.1178708 100.6830788  41.7868376
  37.8346801  98.1283188  81.8945503  38.6763263  98.5834122  81.9220448
  37.9450321  97.4614143  81.2168503  32.4798155 103.3943653  79.3041420
  33.4354496 103.4449863  79.2833614  32.2751498 102.5576782  78.8866520
 113.6971474 104.7969341  55.0928783 113.2448959 104.4370651  54.3298674
 113.3300114 105.6747818  55.1969194  39.0043545  81.9508457  79.7802734
  39.4891524  81.6149902  79.0263462  38.2696152  81.3457394  79.8814583
 107.4693871  92.9237556  53.0877542 106.8545532  93.0472469  53.8109207
 108.1922722  92.4263954  53.4702444   0.1779508 105.2480412  87.0896626
   0.6518030 104.4271278  86.9562626  -0.6693411 104.9804020  87.4455929
  63.1587505 103.0938339  26.8243313  62.5093460 102.5733566  27.2971988
  63.9635420 102.9917622  27.3323894  51.7480469  80.5443954  77.3505163
  52.2947073  81.3213730  77.4675274  51.8868160  80.2890396  76.4385033
  94.6978188  43.4769106   2.7523288  94.7191143  44.1585493   2.0806512
  95.6009769  43.1642437   2.8049910  65.9245443  14.4779551  86.8362904
  66.7752314  14.8217404  87.1090126  66.0418463  14.2530358  85.9133148
  28.2692814  79.8088598  51.9887447  27.6227856  79.9357128  52.6831388
  28.1831884  80.5859184  51.4364767  65.8149433  33.2739377  15.5970132
  66.2941265  33.7740183  14.9363041  66.3235283  32.4701834  15.7045090
 103.3443356   5.3830963  54.1895819 102.8181648   6.0142177  54.6805620
 104.0714359   5.1707625  54.7747993  42.5537205  90.4970741  60.8207846
  43.3438110  90.9869003  60.5926371  42.1297693  91.0272026  61.4956665
  77.1575308   6.2064791  85.5316639  76.3850164   6.3326287  84.9807167
  76.9439602   5.4466867  86.0732651 112.6309776  43.0537224  23.0627656
 111.6931057  43.1413698  23.2329059 113.0466270  43.6150312  23.7172890
 104.5250225 105.2275944  59.7709465 103.6480808 105.1942062  60.1531601
 104.7756290 104.3097687  59.6659327  10.0202882  80.2558231  45.0979519
   9.5577019  81.0924339  45.1461029   9.3393129  79.6174717  44.8857927
  12.4965584  79.7305202  43.8704634  13.2817996  79.5248652  44.3777466
  11.8364334  79.9481297  44.5285797  53.4227610  98.2627010  18.8444352
  53.2835722  97.9938793  17.9363632  52.7930498  98.9699554  18.9840543
  82.1617317  28.1479812   3.9761007  81.9016075  27.3533201   3.5101855
  81.6496086  28.8447618   3.5656703  19.3536890  98.6166000  64.4662237
  18.8330150  99.4111824  64.5835590  18.9459753  97.9750061  65.0479126
  61.4377975  40.7734871  89.9658012  60.5023050  40.5887365  90.0492001
  61.4888573  41.4519024  89.2924690  60.9985352  24.1654634  75.1459551
  60.2796364  24.6812344  74.7807121  61.4966154  23.8743234  74.3821573
  99.7372341  43.7344933  10.6583655  99.9683857  43.4814119   9.7646362
  99.0193558  43.1474113  10.8954597  40.8915901   6.1489463  92.3577881
  40.2229643   6.2015194  93.0407333  40.8194447   5.2561682  92.0201874
   4.3330869  29.8464561   7.5030482   4.2241168  30.1753998   8.3953226
   4.2423514  30.6218433   6.9491762  84.5354939  47.9732656   7.0104945
  83.7601471  47.7125406   7.5075775  85.1466846  48.2967997   7.6723117
  24.5092440 103.3271313  79.0727520  24.9488926 102.5408936  78.7490702
  23.6194682 103.2641220  78.7255335  99.6228409  88.5581112  90.0013256
  99.7565746  89.4498062  89.6800327 100.1861191  88.4944439  90.7726288
  73.8652515   4.8384619  19.3166101  74.2100191   5.4488587  18.6648560
  74.4714308   4.9079818  20.0541353   8.8143688  93.3168983  89.3155479
   8.9238554  92.4201679  88.9991283   8.4990162  93.2171059  90.2137852
   2.1586995  98.4687805  83.7689209   1.9526272  99.4019318  83.8235950
   2.3184146  98.3129025  82.8380966  84.5720768  26.0053110  92.2100735
  84.3719578  26.5047908  93.0017281  85.5282402  25.9991550  92.1660614
  11.7232263  86.8823719  60.2369595  10.8675098  86.5494728  59.9664736
  12.1566558  86.1298275  60.6395149  27.9619551  76.7638063  56.5997934
  28.3731961  76.9773817  55.7622385  28.3837843  75.9491253  56.8728971
 100.2828407 100.6969547  78.1082058  99.6746254 101.3097191  78.5215092
  99.7959614  99.8744583  78.0564308  38.0282450  96.1180019  87.7907276
  37.9795980  95.1981163  87.5305843  37.3027349  96.2319851  88.4046364
  34.3700123  80.1242638  64.9933720  33.6797619  80.0596809  64.3333626
  34.7678375  80.9813976  64.8408079  20.4470658 101.9729042  68.5633802
  20.8297539 101.1015701  68.4606504  20.3969693 102.1023560  69.5104647
  87.0710373  23.8480949  40.9817362  87.1640587  23.1013560  41.5733147
  87.8147411  23.7739754  40.3837013  32.0589781  79.1040039  77.5999260
  31.2743592  78.6326027  77.8799009  32.4739194  78.5217237  76.9635248
  47.7072668  14.6218705  57.9280710  47.5956869  15.0341523  58.7846947
  48.6463404  14.4468164  57.8670025  44.9674129  99.5412827  71.8842030
  44.6608686 100.2937508  71.3781786  44.4064426  98.8186550  71.6025162
  98.4799099   6.7427534   2.8781870  97.6025963   6.9310141   3.2115006
  99.0021038   6.5710467   3.6618114  25.8658171  60.1665211  73.1605911
  26.4068937  60.5191851  72.4541235  25.2997875  59.5249748  72.7313280
  32.8830671 105.8451939  70.7888365  32.6649857 106.6225719  70.2746773
  32.8186345 106.1342335  71.6990757   9.0266657  13.5463619  12.6920891
   9.6622634  12.8420067  12.5650799   8.2347643  13.2364941  12.2526503
  36.1371875  34.8416114   1.2623148  35.8951616  35.7333064   1.0122450
  36.5382814  34.4726825   0.4753922   4.5150527  46.5106821   4.2897865
   4.1457528  47.3364687   4.6027255   5.4017073  46.4930630   4.6500155
  98.6931705  21.3107944   7.0608085  97.9223156  21.8782377   7.0650798
  98.3367920  20.4228401   7.0332479  30.8036733 105.0290966  74.5865202
  30.9546280 104.0839386  74.5973635  31.2424874 105.3507805  75.3740406
  75.4697132  21.4183354  26.4939237  74.8602819  20.7939482  26.1002636
  75.1224899  22.2769165  26.2520432  11.4384222  74.6910143   3.4957281
  10.8522117  74.9876308   2.7995905  11.0742211  73.8505650   3.7736449
  58.3233500  67.3441887  77.9912519  58.3187246  66.8367767  78.8028812
  57.4074125  67.5865650  77.8550863  99.1374969  12.3067856  63.0732250
  99.2990971  11.8357396  62.2557688  99.6005630  13.1376863  62.9664326
  26.3380766 101.7693901  42.2788334  25.7781243 101.2552166  42.8604746
  25.7811069 101.9713688  41.5270233 111.2251282  39.4970965  20.2137947
 111.7186451  38.7071157  19.9933398 111.8738842  40.2003574  20.1859975
  31.1047912  84.1559982  74.4707346  30.6323314  84.4304371  73.6847973
  31.9909263  83.9652634  74.1631413   1.5660411  93.4688663  65.2373171
   2.2409528  93.5240173  65.9138393   0.8633195  94.0368843  65.5531740
   7.3871326  13.7974608  34.9725699   7.7215362  14.2664766  35.7370496
   7.9486638  13.0256236  34.9005795  14.4149137  30.1279187  34.7522545
  15.3078532  30.2870107  34.4463444  13.9778030  29.7117138  34.0093279
  27.1260285 100.3533268  74.8809767  27.1268773  99.4734383  74.5041227
  26.8763447 100.9246922  74.1547298  71.2336731  22.2770119   4.1975734
  71.6818333  23.1071949   4.3593815  70.3026390  22.4956417   4.2376789
  10.5013895  77.3620939  80.9095669  10.3880429  76.4835310  80.5469131
  11.4486814  77.4994230  80.9129810  10.9371436  94.4402599  85.6937981
  11.3540196  95.1272297  85.1736832  11.4076900  93.6412334  85.4563713
 110.8461189  24.6527362   7.7098781 110.4640961  24.9043369   8.5507029
 110.5268574  25.3128672   7.0946294  18.8525271  81.1273956  83.4510136
  17.9241002  80.9154034  83.5475159  19.1570044  80.5548668  82.7469254
  43.6509132  92.9915524  60.5799150  42.8959084  93.4027958  60.1591110
  43.7553930  93.4683990  61.4032841  77.6304913  98.7575245  50.3323650
  78.3891201  99.2393112  50.0028324  77.0110559  98.7579060  49.6026182
  35.7513785 104.0247059  76.6291237  35.6309772 103.5016060  75.8365965
  35.9865618 104.8952484  76.3080740  26.8742442  86.9605923  91.4849281
  27.2380733  87.4838638  92.1990967  26.9408941  87.5261593  90.7155609
  26.9915557  78.9717102  48.9033699  27.8437567  78.6785221  48.5808325
  27.1674228  79.2913055  49.7883320  29.3799138  91.0325623  70.2869177
  29.5547223  90.6623936  69.4216728  29.9727130  90.5620384  70.8729506
 102.6650238  11.5771592  87.0591545 101.8257236  11.4865124  87.5103664
 102.4372768  11.5875399  86.1295033  93.4974766  78.1616879  72.3181677
  93.8389778  79.0228176  72.5591183  92.6865482  78.3493090  71.8454933
  17.7246487 105.0022030  88.4068394  17.5829887 104.2159462  88.9340591
  17.3207569 105.7065201  88.9138412  87.9289436   8.7313986  85.0250244
  87.9119492   7.7878934  84.8645782  87.0066452   8.9853454  85.0582886
  58.9743185 104.4931412  87.9726601  58.1802845 104.4963837  87.4381161
  58.9107323 105.2888870  88.5008430  22.4708986  97.6720905  92.9326725
  23.2194471  97.8344250  92.3586082  21.7380214  98.1105709  92.5004005
  34.9487114  93.1365490  65.4217911  35.5110049  93.7321377  65.9170914
  34.0660882  93.4882641  65.5379820  97.9961967  86.5973568  48.8701630
  98.9359093  86.4175701  48.8991833  97.6371765  86.1163807  49.6158171
  84.9264050  27.2536182  80.7542419  84.4854736  27.7304339  81.4574242
  84.4298553  27.4753284  79.9665165   7.7335048   0.9299777  90.8805180
   8.2671916   0.6943002  90.1216602   7.4446905   1.8248543  90.7015896
 100.9020615  20.6941867   9.6134126 100.4700947  21.5479994   9.5881206
 101.0655689  20.5359387  10.5431724  90.7409000  49.5127726  11.2246454
  89.9103832  49.1816902  10.8827877  91.2147903  49.8160648  10.4502606
  93.0980778  48.8288641   6.9933039  93.6107445  48.6359739   6.2083209
  92.1905708  48.8430214   6.6892034  93.3046150  22.4595833  19.1463590
  92.4970627  22.0208359  18.8788044  93.3407688  23.2468629  18.6031127
  53.4981251  69.7535276  70.8014202  52.9656458  68.9664745  70.6863499
  53.2716131  70.3073025  70.0542545  31.8464446  78.6932468  39.9332380
  32.6783586  79.1562700  40.0320292  31.8304682  78.4226799  39.0152121
   6.9778740  23.9359403  20.6707764   6.2480724  23.4064436  20.3494430
   7.0380229  23.7211180  21.6016173  36.1410618 104.1241550  63.4644175
  35.4600739 103.5099697  63.7387657  35.9903860 104.9034595  63.9994001
  15.2422261  67.7609015  10.3130913  16.0509825  67.6784515   9.8077750
  15.1427948  66.9129992  10.7459998 107.1103096  36.9953060   6.1049849
 107.2241306  36.1473417   6.5342087 107.4458790  36.8619919   5.2185011
  57.4519444  97.2384644  58.1482410  57.8145266  96.3679409  58.3123732
  57.2798872  97.2526455  57.2067356  22.1396089  91.1003017  86.3682556
  21.4674854  91.6422844  86.7814445  22.5854826  90.6727886  87.0994568
  22.9855299  46.3709307   5.0606775  22.6335669  45.6297541   4.5677161
  22.4244595  46.4325142   5.8337480  79.5489883  49.3457651  21.5508866
  80.1900578  48.6533165  21.7114282  79.9854326  49.9392033  20.9396768
  35.8260608  66.1848688  51.6067743  36.0364509  66.4988327  50.7273483
  36.4119983  66.6757727  52.1829033  36.5848994  82.8049469  90.8675385
  36.5068722  83.7455368  91.0269928  37.5087404  82.6740456  90.6539631
  31.1542201 100.3136158  63.7742996  30.6829190 101.0699368  64.1237211
  31.0107756 100.3578568  62.8289461  71.8535137  92.4735069  82.8799915
  72.6457644  92.2881603  83.3841991  71.1503744  92.4716759  83.5294724
   0.2971565 101.0201073  87.5254154   0.3156714 100.5717659  86.6799164
   0.6852473 101.8774319  87.3504543 110.1352787  47.2810602   2.0392996
 110.7329559  47.7276611   1.4396712 109.6185207  46.7041206   1.4768589
  16.9841313 102.9379272  58.0894566  16.2940407 102.7535248  57.4522734
  17.4931037 102.1283913  58.1322956  38.9428353  28.3919501  87.2694397
  38.7206888  27.8353620  86.5230465  38.1327009  28.8617778  87.4673653
  10.5282259  91.4594078  88.4142399  10.7012093  92.1367931  89.0680408
  11.3840485  91.0653114  88.2454586  22.2174764 103.7732506  47.4822378
  23.1542277 103.9248753  47.6076794  21.9626451 103.2229328  48.2228088
  81.4676094  82.7566338  75.4185581  81.5750790  81.9080734  74.9888802
  82.2530651  82.8536701  75.9569502 106.5900230  97.6943684  73.8490009
 107.1508312  97.0926476  74.3385506 106.0957241  97.1305943  73.2539845
  17.0958841  75.1178837  93.1892109  17.3048353  74.2431164  92.8615665
  16.7245388  75.5740976  92.4340916  10.0234520  91.2482738  62.7161980
   9.4960380  91.3157940  63.5121298   9.4350183  90.8552742  62.0715809
  57.7494144  92.3385048  51.3426924  58.5359764  92.8688812  51.4701605
  58.0177689  91.4510632  51.5807247   4.7502866 100.0692940  65.0255394
   4.9366766 100.4146767  64.1524982   4.9529564  99.1359425  64.9621725
  51.2523365 104.0307808  92.4391651  52.0586777 103.5493279  92.2541142
  51.1942911 104.0425587  93.3945274  67.3449039  53.6848259  88.4479332
  67.7309227  52.8181791  88.3208752  67.0349026  53.6785126  89.3535233
  28.6299133  93.0588055  87.7790546  29.0936422  93.5013485  88.4899235
  27.7664518  93.4716034  87.7628326 108.5895634   6.4578062  70.7928324
 109.0214729   7.2472012  71.1192417 108.0679798   6.1468130  71.5327406
   9.5114785  40.9286022  67.7708149   8.5652333  40.7866383  67.7443886
   9.8627132  40.3241014  67.1170235  83.5739231   7.5364840  86.6667938
  82.6315403   7.4664509  86.5143490  83.6480141   7.8539926  87.5667572
  71.0534716  81.2705326  16.7752922  70.3643799  80.6228256  16.9231248
  70.5988455  82.0207310  16.3922095  47.0738697  77.8796482  24.0514779
  46.8428946  78.3998108  24.8210979  48.0303526  77.8448963  24.0641308
  56.3132334 103.2028484  67.2304201  55.3819418 103.1475735  67.4445915
  56.7415810 103.3791733  68.0680704  67.3065901  72.5713539  56.5461111
  66.8155050  72.7104425  55.7363462  67.9279089  73.2988262  56.5773869
  69.5611000   6.4852965  66.9272852  69.9147415   6.2443250  67.7834988
  69.3137884   5.6516945  66.5270615  50.0299406  84.4821453  74.6667290
  49.1982698  84.5777607  74.2025995  49.8862982  84.9164391  75.5075502
  23.9706302  41.8398190   6.2390363  24.1878891  42.7548504   6.0608548
  24.4255376  41.3481140   5.5552852  86.0177994  54.4078875   7.6710433
  86.8915462  54.0972900   7.9083848  86.1724949  55.0562668   6.9840878
  49.0125895  97.5885677  88.7159443  48.4522438  98.2425022  89.1338158
  48.4017229  96.9543839  88.3406067  93.0431080  10.3912795  68.8241053
  92.8884315   9.6830952  69.4492292  93.8669109  10.1575208  68.3963871
   8.3677399  59.1747332  17.6794589   7.7071571  58.7651634  17.1207881
   8.5850960  58.5027075  18.3254981  87.4249363  18.5255766  90.5591106
  86.8718529  19.2567456  90.2839184  87.7400017  18.1422651  89.7405529
   1.7516889 103.1750202  86.4566422   2.3239049 103.8469791  86.0861492
   2.2505917 102.3624897  86.3722992  79.4102144  29.8012805  21.3314891
  80.2471066  29.8278642  20.8676553  79.4848156  29.0478683  21.9171834
  71.4029694  69.6404696  91.4433289  71.3730860  70.4983473  91.8668652
  71.0032606  69.0459061  92.0781231 112.1938133  31.3982344  89.6314335
 111.3019180  31.2406802  89.3217087 112.1743870  31.1476541  90.5550480
  89.8185539  19.2579401  74.3318129  89.8338509  18.5149264  73.7285471
  88.8881207  19.4287062  74.4779348   7.0985579  36.1313033  10.3802884
   6.7952311  36.8895435   9.8809916   8.0399996  36.2719059  10.4810417
  23.3047962  54.4070292   1.3971895  23.0907869  53.7662458   2.0752937
  22.4863625  54.8805428   1.2482540  96.8442822  57.1726179   4.3965554
  96.2111664  57.7091932   4.8735064  96.3459206  56.4039230   4.1191193
  17.1963549  50.9445524   1.4751005  17.9170370  50.7284689   2.0668405
  17.5497115  51.6294670   0.9074160 112.7614117  18.9735591  61.7750072
 113.3616734  19.1743541  61.0569572 111.9450283  18.7239885  61.3420343
  16.7459059  58.8546562   6.3937610  15.8805776  58.8847542   6.8018460
  16.5916061  59.1147661   5.4855943 102.0893669   4.2679250  72.4265575
 101.3237381   4.7706613  72.1485376 101.8036747   3.8158017  73.2204008
  27.7944112  37.8721094   1.3863987  27.2345042  37.9501748   2.1588251
  28.1851196  38.7400436   1.2850845  17.7076304  88.4900951  91.5240765
  16.9517076  88.0975151  91.0873890  17.3333061  89.1649628  92.0903492
  38.4323168  89.4371223  92.5447941  37.9631305  89.9467945  91.8842411
  39.2439842  89.1730309  92.1115780  87.9833984   4.6249133  87.7568722
  87.7437592   4.1952077  86.9357967  88.1951237   5.5235082  87.5040245
  19.6410823  51.0094357   5.7978010  19.6138871  50.0754929   5.5898696
  18.9671898  51.1254072   6.4676160  55.0607347  97.4190521  79.8046207
  55.5322075  97.8864574  80.4941654  54.2136049  97.8615093  79.7514391
 102.7373028  37.9249835  15.3062260 102.1182251  38.5702562  14.9647582
 103.1421757  38.3563352  16.0587204 105.4955769  99.8799992  54.6570444
 105.1206493  99.5307446  53.8485384 105.5312347  99.1284275  55.2487373
  37.8779936  84.6077728  74.7738695  38.4580183  85.3269958  74.5238161
  37.1272421  84.6899986  74.1857862  95.4110050  72.8909826  23.4600258
  94.6781349  73.5015488  23.5396886  95.7034492  72.9848099  22.5534391
  84.8484898  31.2118554  60.9263659  84.3361282  31.8612385  60.4446840
  84.7552013  31.4661789  61.8444347  88.4660816   7.2812724  48.7468576
  89.3726444   7.2220558  48.4454012  88.5357285   7.3918390  49.6950960
  19.7941828  57.1696234  78.3698654  20.2622700  56.4021778  78.0410004
  20.3719497  57.9062462  78.1703520  52.4040222   0.9763666  11.8972468
  51.5586662   1.4034630  12.0357931  52.6982594   0.7368828  12.7760553
  36.9409776  14.9630570  71.8425989  37.4805856  14.9934864  72.6326180
  37.4839735  15.3674340  71.1659384  13.5333180  84.0064716  89.2931461
  13.8800073  83.3167839  89.8591614  13.9425135  83.8466454  88.4427071
  41.5583324  95.4450226  53.9244127  41.5325356  96.3929367  54.0548420
  41.3281345  95.3236389  53.0032682  41.4586496  11.4418721  40.8531713
  42.2001123  11.4053571  40.2489138  40.7237911  11.7329395  40.3132725
  20.1357222  97.8023052  87.2437286  19.8743701  98.2186413  88.0650711
  20.8828020  98.3183479  86.9407463 104.6180820  31.6418767   5.4696703
 104.8660088  30.7760072   5.7937574 104.6870136  31.5700626   4.5176607
   6.2872016  64.1135836  10.5988514   5.4913580  64.2952013  10.0989711
   6.4191657  64.8974133  11.1321688  14.8784816 102.9066658  55.9908581
  14.2448139 102.2229862  56.2083006  15.1877511 102.6766872  55.1146793
  16.2300837  41.6000128   3.2499322  15.6016934  41.1106825   2.7189797
  17.0859039  41.3361788   2.9120028   6.9132119 104.2279148  75.4134607
   7.0955002 105.1618481  75.5172968   7.1906751 103.8362026  76.2415934
  50.4306602  96.6393852  78.0092955  49.8689604  95.9682369  77.6216221
  50.6470680  96.2985516  78.8771820  52.6403189 101.9235611  72.2609043
  53.1786251 101.2026596  72.5876474  51.7394781 101.6212940  72.3764610
  12.4695349  75.9468222  55.6672239  13.3761954  75.6939602  55.4932690
  11.9806075  75.6199169  54.9120331  72.4522924  10.0694513  57.1930504
  71.9436502   9.4596893  57.7275610  71.9440365  10.8804679  57.2056675
  23.3950663  79.0988874  22.4845910  23.0801582  78.2164717  22.2886276
  22.6951551  79.6762180  22.1795559  35.8026862 104.0664101  53.4280539
  35.0470424 104.6202946  53.2319546  36.1793280 103.8632011  52.5718546
  56.6094589  89.8489761  87.2646332  57.1749306  89.5950413  86.5352535
  55.9507942  89.1558933  87.3096085  54.5293903  66.8169689   4.0913403
  54.7808981  67.0657158   4.9807802  53.6221981  66.5225983   4.1724315
  42.3348093  66.8267632  42.4756002  42.7094460  67.7071095  42.4461269
  41.4468479  66.9553852  42.8090858  10.2417171  71.7276907  78.1579828
  10.7146060  71.4887190  77.3608017   9.7949535  72.5445271  77.9356909
  84.2024040 101.4916229  74.3496990  84.1760349 100.7059097  74.8957682
  84.8454189 101.2894821  73.6700678  33.2791829  94.9075317  23.8880539
  32.4212742  94.6550846  24.2293668  33.7546325  94.0814018  23.8003826
  26.7247963  96.1322403  90.1475048  27.3583007  95.8727169  90.8164978
  25.9464979  95.6088924  90.3388023  90.7483101  61.5132809  12.5236607
  90.9637737  61.7871380  13.4151816  90.0449944  60.8732748  12.6330781
   8.9188838  65.1114511  17.9980922   9.2624241  65.8081579  17.4387956
   8.3351582  65.5608559  18.6092675  70.7648087  99.7240543  87.4503708
  70.9171391 100.0531387  86.5645123  69.8786926 100.0154877  87.6650620
  31.4211130  99.8646069  61.0500050  32.2262955 100.3313255  60.8261967
  31.1831951  99.3992901  60.2480650  72.1419144   2.8077218  60.6299639
  71.9209433   2.2656772  61.3873196  73.0837584   2.9585695  60.7100153
  44.4131327  59.9314737   3.3370978  44.2966509  60.4931355   4.1033870
  45.2557230  59.5008993   3.4815899  10.4658842  48.1272650   5.8119565
  10.6626570  47.1923161   5.7538044  11.2279952  48.5570192   5.4237181
  13.6547709  25.8760500  26.7192674  12.9909778  25.6604195  26.0642004
  13.7849569  26.8198228  26.6266632  75.1485968  24.9773216  88.3315182
  74.3600082  24.6305895  87.9142189  75.5762100  25.4908156  87.6461697
  70.6531191  83.0575371  72.6215410  71.2212944  83.4207535  73.3008623
  69.8128223  82.9218578  73.0594063  61.4638424  82.5498390  88.7025166
  61.1119270  82.5361252  87.8124619  61.6947031  81.6385746  88.8828659
  52.7778673 102.1881390  91.3745022  53.2461882 101.4292526  91.7223263
  52.1410513 101.8172741  90.7636356  94.4935322  27.3077321  24.2835021
  94.4053268  28.0276966  24.9080873  94.3582344  27.7149844  23.4278917
  46.1820793  49.7869015  13.2776189  45.3745556  50.0293493  13.7307799
  46.5139437  50.6113052  12.9220128  93.2507706  41.7572784   8.3273751
  93.3437538  40.8528233   8.6266315  92.3345375  41.9737625   8.5002506
  82.9058552  33.3412504  60.8180904  82.4635029  33.4572649  59.9772024
  82.2398567  32.9567575  61.3880396 110.3320408   6.9273239  55.7546616
 109.4301128   7.1205741  56.0104179 110.4019165   7.2541779  54.8577166
  78.4996653  94.4654274  83.5059452  79.0226841  94.9360943  84.1549015
  79.1197348  94.2497635  82.8093529  27.4961519  34.9640274  78.9802837
  27.2649908  35.8627248  79.2150927  28.0447221  35.0536346  78.2010078
  65.0259256  98.5191917  90.9184074  64.3984461  98.0084229  91.4298916
  65.3520870  99.1795635  91.5297604  88.4014320  29.5113277  17.6600397
  87.6374722  28.9394903  17.7348781  88.0348206  30.3925848  17.5878441
  73.9980936   6.6430044  58.0925560  74.4875479   5.8255976  58.0002880
  73.2231665   6.5213841  57.5439882  10.5058885  61.9266796   1.1943268
  10.7820916  61.6107416   0.3340206  11.3148475  61.9716072   1.7040327
   6.6633135  34.7315526  67.8270245   7.2651964  35.4547811  67.6512098
   7.0817530  34.2377543  68.5322189 104.8431778   3.4338865  72.4868679
 105.3828812   4.2081049  72.3270512 103.9498901   3.7215629  72.2984028
  65.3563881  19.4494402  76.0011435  64.5322418  19.9168932  75.8651114
  65.7530928  19.4052315  75.1311398  94.3004704  16.4461040  77.6066828
  94.4832706  17.3228359  77.9445601  93.6921978  16.0669434  78.2410908
  29.1089582  80.3717422  71.1143684  29.9850488  80.7338238  70.9817457
  28.7878895  80.1917744  70.2307606  27.1472597  99.6973515  68.0155182
  26.9080663 100.4040527  68.6151791  27.9290366 100.0187111  67.5663137
 107.4457359  19.9469543  20.0553370 107.8920174  19.1199791  20.2374840
 107.4717712  20.0282407  19.1019511  80.0912476   3.0303168  87.8026962
  80.7778549   2.5810543  88.2956028  80.1388168   3.9390630  88.0995941
  48.7648201  93.0578899  73.7896776  48.7385082  93.5649014  72.9782152
  48.9584541  92.1639919  73.5074043  80.1076412   4.1368479  90.9288979
  80.7210445   3.5908204  91.4206505  80.6119251   4.4451278  90.1759720
  67.8054380  32.5023437  79.3587255  68.1244564  32.5335026  78.4567928
  67.9822731  33.3767533  79.7056723   6.4232588  14.9892282  18.7629664
   5.5412561  15.0720739  19.1255128   6.7873329  15.8729923  18.8143742
  22.3595262  84.7023678  78.1529522  22.3310328  84.7565365  79.1081905
  22.7454758  85.5338192  77.8773117  78.0292273  15.3432822  63.0169535
  78.6750841  14.6679163  62.8096437  77.6365137  15.0543344  63.8406754
  51.2264872   4.6997342  66.4210224  51.2429428   4.5328808  65.4786205
  50.3609657   5.0751829  66.5827131  63.5667133   3.0861729  66.5664196
  62.7140617   2.6776043  66.7157078  64.1985321   2.4538331  66.9087410
 107.4741745   8.5530019  87.7949810 106.6005230   8.6269933  87.4109364
 107.4822617   7.6891130  88.2071209   7.8096122  84.2408752  11.0540807
   8.3208299  85.0312233  10.8801889   8.3395082  83.5290909  10.6951952
  55.0812769  67.0807981  11.6283953  54.2487717  67.3692465  11.2542796
  54.8594761  66.7954016  12.5147259  34.0687728  65.8448315  61.3581800
  34.6344328  66.2093353  62.0389128  34.4623256  66.1391592  60.5367661
  47.1483135  96.9007969  78.6338806  47.6130056  96.0970116  78.8667250
  47.0895338  96.8753719  77.6788235 104.5172501  13.6689472  66.6978073
 103.6730862  13.3125710  66.9745970 104.8328400  13.0519235  66.0375643
  67.6470995  27.9267144  84.9446774  66.9537926  27.7378988  84.3122959
  67.2899199  28.6281109  85.4893780  87.4793243  81.9938087  56.1801815
  87.5531197  82.9349041  56.3386583  86.5401363  81.8155861  56.2291956
  41.4259720 101.0303593  59.1122580  40.7295465 101.6293621  59.3813896
  41.2962198 100.2528095  59.6552181  13.7919044  85.9803104   3.9971152
  13.1945562  85.4763412   4.5497614  14.3755972  86.4207363   4.6148181
  56.4686632   2.0971721  68.7143660  55.8188152   2.6163623  68.2406807
  56.1844397   1.1909680  68.5950232  81.5719318  60.8268929  19.7668958
  81.6929054  59.8868513  19.9007845  81.8958473  60.9861898  18.8803637
  44.4912720 103.8407707  53.8587093  44.5880318 103.4776402  54.7390509
  45.3879261 104.0098858  53.5694933  48.9634895  76.9806576  72.0940399
  49.2834759  77.4928713  72.8366566  48.0100203  77.0350361  72.1586514
  95.6812286   9.3260652  89.9871445  94.8486614   9.7971290  90.0211906
  95.4498768   8.4167814  90.1766396  23.8725305  63.4369326  60.6354284
  23.9325428  62.8981733  61.4243317  23.8008165  64.3336058  60.9626389
  20.9030080  31.5386438  23.5131168  20.4843616  30.6781197  23.5346770
  20.2539778  32.1303511  23.8937402  67.7239180  79.5406961   6.5893537
  68.5738277  79.8543406   6.2803054  67.4160004  80.2271938   7.1810806
  46.4374352  79.5815659  73.7027311  46.1532307  79.0043592  72.9940081
  47.2265434  80.0050926  73.3648491  62.1230555  13.2414949  54.5527792
  62.0402288  12.2886264  54.5903921  62.4379826  13.4197438  53.6666203
   6.1050916  87.4084568  59.1864109   6.7946076  87.7439976  58.6135101
   5.7909459  86.6187859  58.7459946 106.1967754  51.5882301  18.9122307
 106.2457943  51.7863798  19.8474133 107.0652008  51.2505054  18.6931252
  49.7230434  23.1807804  84.1989708  50.4465294  23.1012225  84.8206329
  49.1563702  22.4344468  84.3941498  36.4317274  98.7384510  86.2855816
  37.1123815  98.5739708  86.9381809  36.8692136  99.2537498  85.6078625
 112.5156403  19.6451962  44.2566156 111.7053413  19.1770256  44.4577694
 112.5452518  20.3578854  44.8949146  79.4677258   4.3512610  64.2399406
  80.1591682   4.8071805  64.7198009  79.0964603   5.0187278  63.6629772
  12.4068367 103.5057068  76.6129732  12.4413764 102.6854801  77.1051836
  13.3031929 103.8402843  76.6418457  26.3760662  38.0402970  14.3849683
  25.5172729  38.2031012  13.9948356  26.8002963  38.8982725  14.3967986
  52.9515648  88.4483528  34.9892521  53.6243343  89.1286373  35.0177598
  53.2862282  87.7564716  35.5598116  24.8617649  29.7198391  11.8112552
  25.3208208  28.8917708  11.6705477  25.5406761  30.3209972  12.1177173
  75.6207943  18.8471305  68.2660198  75.9068489  18.7126958  67.3625088
  75.8120155  19.7681344  68.4432697  64.1247702 103.1775951  83.2018948
  63.4751749 102.6053238  82.7935314  63.6842632 103.5247326  83.9775753
 113.5671902  32.9689479  51.3985014 113.3771133  33.7923646  51.8480444
 114.3820858  33.1369972  50.9252739  82.8482151  36.8712854  85.1719856
  83.1501389  37.4171281  85.8980179  83.0212307  37.3956108  84.3900776
  30.8301044  19.1938829  16.5115714  30.3197002  19.8816848  16.0841954
  30.6051326  19.2697942  17.4388564   9.3982327  52.1046066  11.7523909
   9.0316820  52.8949261  12.1489596   8.9903957  52.0592976  10.8876097
 113.0533123  34.0017319  17.3621905 112.5173569  34.7136378  17.0126593
 113.7385559  33.8735342  16.7062652  69.6226645  33.8260889  74.4575787
  68.6702156  33.8472486  74.5504379  69.9075747  34.7040939  74.7108889
  91.5267944  13.9317560  44.5978260  90.9179878  14.6660531  44.5179033
  92.2603989  14.2827225  45.1026821  31.2498188   8.3154947  78.7976217
  31.3973522   8.6318409  77.9063368  31.6182661   8.9983147  79.3581915
  88.9115524   9.7330898  46.3465595  89.5531178   9.6358109  47.0502377
  89.2102432  10.4976225  45.8541155  93.1229591  14.9709070  46.6302013
  92.5825214  15.5916250  47.1189451  94.0208435  15.2694392  46.7748165
  84.5297432   2.4274096  44.2640066  83.9578152   2.8954294  43.6556578
  84.9512196   1.7557299  43.7278748  26.4478254  80.4507446   8.5691589
  25.7358932  80.8198071   9.0918255  26.9704533  81.2086868   8.3072114
  41.0604334 103.9741516  80.8282757  40.3112602 103.8869953  81.4176559
  41.4799929 103.1139660  80.8454037 100.4382038  35.2867889  25.2003169
 100.6986332  36.1171126  24.8016071  99.6851158  35.5096436  25.7475162
  16.8609345  20.4488802  17.9348135  17.4675310  21.1817122  18.0407941
  16.0165536  20.7928133  18.2262969  41.2031889  23.4504557  26.9404459
  40.7655954  23.3213449  26.0989738  42.0767403  23.7667942  26.7100859
  63.5912800  22.3694062  62.6548624  64.1231728  21.5736079  62.6499033
  64.2172194  23.0768251  62.4999857  16.6707563  85.1317024  84.4691086
  17.3592138  84.5289326  84.1881561  16.7295003  85.1338291  85.4244995
  47.1937180  29.7127604  78.0032682  46.8309402  30.4304838  78.5224009
  47.9705000  30.0867748  77.5873852  24.5663023  26.4098096   6.5039444
  23.7187171  26.8391204   6.3876474  25.0955391  27.0496464   6.9801253
  33.2263708  86.8434048  15.1655161  33.4801173  85.9874058  15.5106354
  33.5243917  86.8328667  14.2559540  68.9284945   1.4526795  83.0583954
  68.2481623   0.7916690  82.9301548  69.6274281   0.9903964  83.5210133
  67.7001953 105.8132458  67.2549725  66.9663572 105.3473663  66.8541479
  68.0398703 106.3718319  66.5558100  72.6059008  94.4523907  80.8259487
  72.0569611  95.2046299  81.0473537  72.3350859  93.7694168  81.4395046
  49.2198324 104.4244003  39.8929739  48.4844542 103.8131523  39.9356771
  49.8152781 104.0382385  39.2506695  24.8325801  62.5321054  21.8679070
  25.1782799  62.0400953  22.6126575  25.6100535  62.8572750  21.4140034
  46.2475252  98.7419319  61.7138529  45.9050417  97.8858662  61.4567757
  46.0690308  99.3069172  60.9620762 110.9140110  61.5846968  22.3946190
 110.0320816  61.2490416  22.5551581 110.8354473  62.5311852  22.5138569
  45.4034758  95.5165195  87.7844429  46.1883497  95.2551079  87.3029232
  45.0606775  94.6990395  88.1456184  97.4797058   6.6386837  79.5805073
  97.9064941   7.1506917  78.8935328  97.1300507   5.8723545  79.1258526
   5.4464948 107.5080681  19.7207499   5.8295012 107.0312023  18.9844477
   4.6353456 107.0382309  19.9144638  16.5265751  13.2727098  31.5924811
  16.3616848  12.3313713  31.5383959  16.9827664  13.3884597  32.4259806
  20.5318069  90.0695610  84.1768265  21.0440922  90.4378510  84.8966599
  19.9501467  90.7807922  83.9083958   1.0764982  60.2598715   5.8843744
   1.7025733  60.8171463   5.4220921   0.4527622  59.9900436   5.2102983
   6.3036537  38.1755280   8.7873977   6.5967590  39.0837026   8.8618243
   5.3769237  38.2410669   8.5569465  37.4952960  87.2789955  80.3475952
  36.9568801  86.4981556  80.4765797  38.3962536  86.9607639  80.4045105
  48.2879734  89.0381145  76.2243176  47.3646259  89.1336250  75.9907818
  48.2765722  88.5730076  77.0608473  56.6794777  11.5142560  91.6895866
  56.8209171  10.5930853  91.9079208  56.8882132  11.5742254  90.7573509
  93.8999748  41.1292505  31.1779046  94.4926834  40.4473162  30.8618522
  94.4746017  41.7725611  31.5928602  24.7068477  96.3350677  66.1841393
  25.1164556  95.5603695  65.7990456  24.1154933  95.9866714  66.8513393
 107.3796177  28.7856770  27.2755051 108.0069065  28.5418534  26.5948510
 107.7876854  29.5270252  27.7228427  80.0520134  66.6700554  12.5650609
  80.6902599  67.3834038  12.5634527  79.4833088  66.8591785  13.3114100
  54.2856169  11.9880366  74.1761446  53.6566305  11.6382158  73.5450888
  55.1338053  11.6630089  73.8742113  10.0272822  28.0779147  24.6331048
  10.5605090  27.3067856  24.4400668  10.4584265  28.4852886  25.3843665
  37.7780271  30.7544231  81.9544029  37.8362966  31.4954853  81.3513565
  37.4253535  30.0405097  81.4231968   0.3266191  37.8193855  81.8702698
   0.4194593  38.0863929  80.9557629  -0.3455401  37.1380901  81.8538094
  42.2248745  88.0182457  76.7024565  42.2502327  87.2078705  76.1936474
  41.3271475  88.0667686  77.0310307  22.3384380  58.5500336  33.9525580
  22.7274036  57.8019476  34.4056606  22.9105520  58.6978626  33.1995201
  21.0693359  45.9481239  38.5060334  20.9632492  45.1751947  39.0606093
  20.7513499  45.6717062  37.6465511  74.9747276   2.9436970  60.3532553
  75.0872898   3.8825998  60.2048492  75.0382757   2.5540695  59.4812584
  10.3417516  94.3770409  81.9173336   9.6011245  94.1372585  82.4742985
  11.0074162  94.6944714  82.5275421  74.8492718  66.8439913  39.8094130
  74.4970226  67.4575853  40.4541302  75.6743574  67.2394657  39.5282269
  71.3722563  92.4032784  75.4544735  70.4673386  92.1315575  75.6078482
  71.4829350  93.1843948  75.9965563  84.0318775  10.2941430  70.2810335
  83.9428425  11.2158442  70.5234575  83.1349754  10.0011098  70.1200294
  34.6947360  45.0259495  33.9576387  34.2230797  45.1636839  34.7791028
  34.5767903  44.0953970  33.7668562  82.8494072  16.7349958  63.6025381
  83.7597179  16.4483297  63.5291910  82.7867126  17.1110213  64.4805527
  47.4398994  83.6974430  42.9497528  47.5441742  83.4022141  42.0452118
  48.0731678  84.4089985  43.0439711  27.8829598  33.8885975   6.4057392
  27.2433996  33.4104633   5.8779299  28.5184383  33.2241416   6.6719991
  60.2838659   7.9971290  74.0339041  60.7660580   7.1815312  74.1699934
  59.4831228   7.8904951  74.5474005  79.7015715  10.6828070  91.1961842
  79.4986153  11.5475321  91.5529633  80.0330257  10.8587885  90.3156090
  23.5156131  94.6975136  61.7580986  24.1626263  95.3960705  61.8562174
  24.0197754  93.8892365  61.8515396  42.5159979  99.1796017  36.6372061
  42.0524502  99.4717026  37.4220824  43.1070280  99.9021053  36.4252853
  22.1177077  89.5950603  81.7866421  21.5120101  89.9065399  82.4592113
  22.0629835  88.6408234  81.8384171   1.8312530  97.3799610  79.8829699
   0.9682909  97.2577953  80.2787018   2.2830702  97.9816437  80.4746437
  21.6530252  36.7046070   5.1061660  20.7408929  36.4242625   5.1813334
  21.6509342  37.6113915   5.4127109  29.1818237  45.9218264  12.5551832
  29.6804333  46.5926933  13.0216193  29.8474312  45.3354359  12.1955419
  73.0644894  29.5327473  77.7833414  72.3628712  29.8351359  78.3599949
  72.6105261  29.1856837  77.0154285  69.5605040  14.8102546  75.7081509
  69.2371368  15.2023041  74.8970032  69.3202734  13.8862050  75.6399393
  80.6758595  92.6860142  74.9260712  80.9690189  93.3215809  74.2731237
  80.6467724  91.8537998  74.4540596  43.5289288  77.2668600  56.4667606
  44.3109512  77.7569056  56.2127352  43.3960485  76.6417027  55.7541943
  39.8854160  98.7190151  91.3287449  39.2446518  99.1463566  91.8971062
  40.5418062  99.3943596  91.1575985  24.1567802  30.9647846  14.9742866
  23.5962296  30.1893592  15.0012672  25.0320959  30.6214428  14.7949314
 101.1590004  55.9924364  20.4527211 101.8927765  55.7518196  21.0183263
 100.4860878  56.3093567  21.0552001 101.0980606   2.0681636  77.9475307
 101.5582943   1.2348536  77.8474998 101.5068531   2.4775240  78.7101173
  95.4087639  46.6122007  59.0850544  95.0237083  46.5585518  59.9597502
  95.3180504  47.5329065  58.8394880 112.1809101  23.9674973  84.9499798
 111.8282509  23.1516027  85.3051949 112.8863525  23.6892748  84.3658733
   1.8476011  47.4763250   5.3673887   2.0712696  48.4032726   5.2839065
   1.9561887  47.2867250   6.2993181 102.6861858  50.2438259  23.2946992
 103.3000088  49.5773029  22.9861665 101.9282722  50.1574564  22.7164793
  93.6559391   5.0166816  79.9835825  93.8245392   4.6451229  80.8494663
  93.4139633   5.9265316  80.1563549  98.2936764  94.5582390  18.3997440
  98.3832169  94.2549801  17.4962819  98.8963890  94.0065956  18.8984048
   3.8961831  47.8784227  14.0700495   4.5862994  47.3191071  13.7134874
   3.3116826  48.0393457  13.3293092  11.9247067   9.6915573   2.0169780
  12.4162495  10.5122781   1.9848113  12.4317646   9.1315705   2.6048031
  99.4043064  14.1337347  91.8090820  99.6239758  14.1014552  90.8779907
  99.5632172  13.2437766  92.1236515  53.4119987  91.9467258  81.1873913
  53.6555052  92.7562237  80.7383251  53.9459324  91.9436073  81.9818306
  27.2715664  45.8846617  17.2223067  26.8641376  46.3967800  17.9208565
  27.6282763  46.5394640  16.6221189   5.7678348  24.8350739  47.3727417
   6.6286975  24.7820592  46.9576073   5.8028013  24.1907907  48.0797863
 113.0818558  57.6505041  23.6163712 112.2165489  57.2428131  23.6519122
 113.3107758  57.6459551  22.6869559 102.3653889   1.8359040  42.2420883
 101.9029236   1.2135454  41.6808176 103.2922077   1.6422391  42.1016264
  48.3597136  10.0575233  89.6339226  49.2291880  10.4134572  89.4507408
  48.5297060   9.2238766  90.0725174  76.3011837   1.1464462  80.9431553
  76.9324636   0.4886741  80.6515121  76.7520428   1.9819108  80.8208561
  71.4462090  11.5739453  92.6816750  71.5201664  11.4035630  91.7426682
  71.5018272  12.5265253  92.7573681  78.6667061  98.5523224  63.3041191
  78.6964989  99.4432354  63.6528444  78.2701111  98.0341339  64.0044260
  39.6358752  80.7187366   1.2505528  39.6178007  79.8160934   1.5685791
  40.2144527  81.1761093   1.8607026   6.9975781  46.4182234   5.1309651
   6.9364655  46.0412216   6.0086715   7.1548945  47.3503923   5.2811080
  25.4416060 106.0460854  66.9157887  25.9162045 106.1927032  67.7340126
  25.0848722 106.9047928  66.6886473  92.3082829  41.7875385  64.7767878
  91.7356014  41.2062979  65.2772188  92.0236778  41.6809034  63.8691187
  90.2726746  29.9261022  88.6316872  90.0699615  30.0702429  87.7073669
  91.1456585  29.5335197  88.6270428  95.5695820  40.3160667  73.3208752
  96.2427521  40.9662724  73.1201029  96.0515499  39.4949818  73.4196615
  99.0396309  13.6809242  69.1088867  98.1867123  14.1125381  69.1585445
  99.6591759  14.3374228  69.4273138  54.1369629  78.7980795  82.3082829
  53.8087225  79.3670845  81.6120625  54.7909498  78.2467556  81.8786716
  85.6282043 103.0685520  84.2143154  85.4542065 102.6567268  83.3679390
  86.0500908 102.3828793  84.7320938 108.5153484  27.2777081  80.6445694
 108.7245083  27.6110625  79.7720098 107.7326393  26.7421389  80.5150795
 103.3728409  24.0097332  57.6166773 103.2849884  23.3041906  58.2575560
 103.5366535  24.7923160  58.1429482  22.9998302  41.6663837  33.3245730
  22.1736550  41.2817192  33.6173177  23.1643343  42.3790216  33.9420795
   9.9745357 106.5026855  84.7726631  10.1558900 105.6636524  85.1961613
   9.2978215 106.3031483  84.1257668  21.6894317  44.8043776   0.6954197
  22.0769835  45.6087351   1.0404542  20.7781768  45.0356054   0.5154695
  99.8807716  10.8589733  75.5811262  99.0029240  10.8544242  75.9627008
  99.8360729  10.2199709  74.8698521  97.0687771  57.8221273  10.5802608
  96.2653542  57.5567961  11.0278535  97.1567822  58.7543964  10.7786715
 103.6439037  15.4555118  87.8244400 103.0795383  14.6857738  87.8967762
 103.8220406  15.5346763  86.8873024  78.3062553  43.1008720   0.5871079
  79.2339993  42.8713417   0.6404660  77.8459644  42.2841311   0.7802395
  29.9639082   3.1536695  44.2494917  30.0580192   2.5586575  44.9933577
  30.6689000   2.9037595  43.6521959 109.6074677  19.4067764  91.1173916
 110.3322411  19.2097962  91.7108154 109.6846867  18.7551999  90.4204655
  50.1194668  58.4934044   4.1956291  49.2696095  58.9328337   4.1659677
  49.9803829  57.6709938   3.7260240  39.1560078  52.8745365   1.0025013
  38.4009004  53.2505131   1.4549240  39.9139452  53.2785225   1.4250582
  57.3236418  88.3166695  82.7130604  57.8653526  87.6369762  83.1140614
  57.3073959  89.0224075  83.3595181  63.4122753 103.9525604  90.9261799
  64.3018770 104.2327690  91.1414051  63.0357456 104.6939468  90.4520512
  34.1453791 102.5650787  87.4455166  34.2301798 101.7275715  86.9898510
  35.0223708 102.9469776  87.4099350  97.0090485  64.3251181   0.5749031
  97.4177933  63.6891985  -0.0122692  97.3326683  65.1734543   0.2718651
  59.3715239  98.5223866  52.8237200  58.9213371  97.6834106  52.7252674
  59.0373182  98.8783646  53.6470175  63.6166048 105.1300621  87.8105354
  62.9691029 104.4267845  87.8593063  63.2869816 105.8010006  88.4083939
  26.1397529  16.7185676  72.8000259  26.7255640  16.9661081  73.5154104
  25.5613828  16.0582101  73.1816626  28.5126686  99.9580574  91.3114357
  27.8859067  99.7047138  91.9890976  28.1062627 100.7083797  90.8777523
  10.9210598  63.0071115  18.3875799  10.4333508  63.7788820  18.6752331
  11.1691296  63.2035303  17.4841905  25.1913857 103.8665581  64.9176168
  24.4800210 103.2997608  65.2158451  25.3614616 104.4476604  65.6589794
  42.3463631  18.3144784   5.2669078  41.4904690  18.7428880   5.2785945
  42.8503895  18.8040268   4.6168801 105.0596142  38.8492441  10.4239416
 104.6791649  37.9722381  10.4724336 105.4944134  38.8749075   9.5715791
  71.3050413 100.8468723  84.9395275  71.7546082 101.3557339  85.6142044
  70.7502222 101.4836788  84.4891071  94.0789413  20.6817889  84.0061283
  94.1191387  21.6222715  84.1796589  93.1582260  20.5145240  83.8047981
  72.1105099   1.1999656  86.9633102  72.9116392   1.7080121  86.8355846
  71.6764784   1.6198422  87.7059746   3.9827770  11.3180757  51.3117647
   3.7890556  11.0390234  50.4168701   4.7890705  11.8281078  51.2343693
  70.4851866  98.8863277  92.3086262  69.7053719  99.2509270  91.8900776
  71.0517693  98.6328411  91.5799522   9.9627250  11.7801583  91.5356827
  10.0662792  11.7860186  90.5841160  10.6440306  11.1842716  91.8470860
  49.0434027  74.2558384  65.8318233  49.5620632  74.3863821  66.6256618
  49.1497564  75.0699043  65.3396654   8.0848825  68.7204075  11.8057048
   8.1001574  68.0435753  12.4823856   7.3670685  68.4640503  11.2266922
 100.7835388  10.2871430  68.2197714 100.6669331   9.3848574  67.9222584
 100.7536793  10.8094072  67.4181604  75.5268574  85.7373714  76.8433189
  75.8939552  85.0790501  76.2533379  74.6322632  85.8684158  76.5290642
  59.2085695  19.4001508  75.8762312  59.1066551  18.8335741  75.1114845
  58.8700533  18.8810396  76.6057253  86.9322968  14.5833421  92.8476906
  86.5200329  15.1348245  92.1827602  86.2507725  14.4532299  93.5071087
 113.7623787  11.2513840  33.9628410 112.9415321  11.2678325  34.4549537
 114.0773010  12.1548223  33.9920688  76.0320282  83.8483047  74.9036217
  76.8663883  83.3989143  74.7689676  75.3827667  83.2751751  74.4959259
  54.5454311  98.6184502  71.6735172  53.6600637  98.6742210  71.3140154
  54.4731522  97.9897976  72.3917150  36.5990448  29.2878342   6.7037272
  36.6287637  28.3362055   6.6049778  36.7756701  29.6253848   5.8256066
  61.7643309 105.5884361  79.2142487  61.3894892 104.7195530  79.0701818
  62.6936960 105.4247665  79.3746424 106.5298080  86.8610859  34.0844846
 106.0138035  86.1239910  33.7578845 106.2991524  86.9228745  35.0114202
  51.1324120  98.2569408  38.7821698  51.3448238  97.3687553  39.0689397
  51.8361950  98.7986469  39.1392016   5.5329943  49.7709036  15.2537167
   4.9213359  49.1082764  14.9327266   5.4501581  50.4943323  14.6324110
 110.3609371   5.9903407  74.0529919 109.5428848   6.2193614  74.4940901
 111.0094452   6.5874964  74.4259119  95.1274776  27.0659018  90.8962059
  95.6070805  27.7740550  91.3260078  94.3358421  26.9583154  91.4234257
 107.7371120  32.7386904  11.6517258 108.5725975  32.6141334  11.2015271
 107.9305744  33.3690262  12.3456132   2.5967318  37.9324126  69.5859718
   3.1471199  38.2335639  70.3088951   3.0863011  37.2069645  69.1983175
 113.2132721  37.6853323  53.7112713 112.5333881  37.6385903  53.0391073
 113.6994171  38.4836936  53.5050964 109.2901134  21.8601632  73.4866285
 109.7108746  22.7119613  73.6034012 108.8348961  21.9309044  72.6475811
   7.3711354  18.9813709  84.0435410   7.4956250  19.6060872  84.7580051
   6.7035139  18.3768070  84.3675995 107.2506142  11.3169837  59.1951513
 107.5185871  10.6035721  58.6159611 107.0897865  12.0551372  58.6073637
  19.7190237  42.8333902  76.4293480  18.9173591  42.4212074  76.7513227
  19.4253373  43.4095097  75.7236099  90.5115986  95.3623104  67.8576422
  91.4323902  95.1372623  67.9907799  90.4864883  95.7646751  66.9894838
 107.2220898  29.8412371  86.8709946 107.5505638  30.6797314  87.1954346
 107.4455357  29.2141485  87.5587940  91.9175816 106.1805439  62.7870464
  91.1480713 106.0829353  62.2261906  92.5721741 106.5957069  62.2254562
   3.4963194  32.4842143  74.5754242   3.2217044  31.5780473  74.7157145
   4.2731759  32.5868940  75.1251316  11.2124562  49.6306515  31.9293928
  10.2646971  49.5091343  31.8726635  11.4975810  48.9895535  32.5804901
  10.1100695  30.3158069  51.6721106   9.3670607  29.7753692  51.9406176
  10.4510748  29.8824716  50.8897018 104.8353291  29.1785240  57.5857306
 104.3059826  28.9463949  56.8227530 105.1993084  28.3460498  57.8869581
   8.0217665  18.5030031  65.4101276   8.6750823  19.1163135  65.0735855
   7.5435442  18.2124615  64.6335173 112.4230289  12.1910775  72.2836781
 112.0681763  12.9895902  72.6744366 112.3716164  11.5390921  72.9826117
 109.7292900  13.5028207  53.5781765 109.0324116  13.9851308  54.0231133
 109.2966461  13.0937886  52.8286791  38.3674240  16.9086432  35.9066224
  37.8905678  17.7161407  35.7148218  39.1218352  16.9303930  35.3178763
  21.7717147  65.2602816  84.9376297  21.6270614  66.1604595  85.2291489
  21.2002611  65.1603365  84.1762543 102.6294708  99.8660755  57.0803213
 103.3250999  99.2465878  57.3006964 102.7862263 100.6162167  57.6538563
 112.5714684  14.3768716  77.4218845 112.4783134  14.4538271  76.4723444
 113.4638691  14.0551472  77.5497055  10.9642184   8.0851263  91.7810249
  11.5447700   8.7329698  91.3816643  10.6914508   8.4847987  92.6069164
   7.4471259  30.9882879  62.2263527   7.9768193  30.2452970  61.9371843
   7.9327190  31.7582393  61.9303703  24.0651035  35.8071661  63.0035543
  23.7271118  36.6250896  62.6388645  23.4408808  35.1408148  62.7162313
  20.2277946  32.9802561  75.7044697  19.6057427  32.8288388  74.9928808
  20.5272460  32.1051908  75.9510851  12.9989171  28.2648373  77.3017263
  12.2946405  27.6934290  77.6078653  12.5485098  29.0325475  76.9496155
  39.7022796   3.4740624  52.6341009  40.6455517   3.6351743  52.6115656
  39.3375158   4.0990421  52.0075369  22.2417545   9.9119025  62.9133463
  22.7772188   9.1185981  62.9266405  21.3534832   9.5984799  62.7431297
  91.0465145 105.5298615   4.0308973  90.2955151 105.5896378   4.6213678
  90.8224869 106.1052036   3.2994473  28.0140328  34.1603041  88.8659954
  27.5993776  34.0102673  89.7155666  27.2955990  34.1056299  88.2358360
  29.7913599  50.6229067  54.0260887  29.5431709  50.7428503  54.9427414
  29.7555900  51.5028906  53.6511517  51.3167524   6.0458064  88.6091900
  52.2389126   5.8960736  88.8175964  51.3333082   6.6743749  87.8874779
  15.1739740  14.6103132  67.7340603  15.0221252  13.7334526  68.0866051
  14.3903494  14.8000467  67.2181463  18.8908529   1.3939308  63.3026314
  18.3850503   0.9008563  62.6566648  19.3798089   2.0343243  62.7858639
  43.1201839 102.7588940  84.6446800  43.0966711 103.4186268  83.9515400
  43.5170174 101.9918442  84.2318916 113.3372402  21.6444921  74.0802050
 112.8985500  21.8691587  73.2596540 112.9673195  20.7963204  74.3251467
 101.9983101  19.2336953  90.4089069 101.0516644  19.2376113  90.2671719
 102.0988750  19.0970087  91.3509464  22.4465060   9.1028821  81.0176849
  22.6517224   8.2398486  80.6581116  21.5173697   9.0539271  81.2424946
 113.5206413   4.5866978  87.9520893 112.7123356   4.1072974  87.7702999
 113.7777042   4.2992675  88.8281822  46.0564756  78.0595493   8.4080374
  45.3869581  78.2049274   7.7395785  46.2306213  77.1190119   8.3720326
   3.9734727  24.9213481  81.8436527   4.6362653  24.9630880  81.1543083
   3.3709338  25.6367445  81.6402245 101.8271160  96.9346523  62.9407167
 101.4521790  96.6123199  63.7603188 102.7649117  97.0068073  63.1183767
  94.8089600  18.6844945  67.1415567  95.6160164  18.2003748  67.3162699
  94.4321823  18.2531631  66.3745975  10.6245255  36.2064910  52.5424814
  10.2150142  36.8433118  53.1281328  10.4513454  36.5435052  51.6634655
  58.0964804  84.4099045   1.8775094  58.6784458  84.2898560   1.1270883
  57.3354340  83.8639164   1.6801524  10.3609908  27.8774571  32.8168607
   9.5926452  28.0349064  32.2681475  11.0228896  27.5427556  32.2117996
  98.9054108   9.1216815  46.0779667  99.0427017   9.9063540  46.6086960
  98.0948544   9.2951101  45.5992651   1.7388478   9.9253869  72.3577929
   1.9051357  10.4739928  71.5912342   1.2188764  10.4790425  72.9403114
  29.2386866  94.7879887  13.9419746  30.1433587  94.4872189  13.8563299
  28.7250543  93.9838123  14.0175009  11.5615463  50.7940960  54.4726372
  12.1392822  50.0707436  54.2292929  12.1540296  51.5248919  54.6490765
  12.1789908  17.7926612  88.6778259  12.6417911  17.6212513  87.8576660
  12.2250795  16.9649410  89.1563511  30.0302076  35.6871438  80.2742100
  30.0921130  36.2935925  79.5362282  29.1244650  35.7659316  80.5736351
  94.6682262  82.6818562  83.3426571  93.8591957  83.0269241  83.7203217
  94.5989037  82.8776073  82.4082565  13.2130039  12.0499539  64.3179464
  12.6096892  12.2660935  63.6069393  13.5587311  12.8954411  64.6040487
  10.0851130  57.1871662  75.9101009  10.5961573  56.3934708  75.7516336
   9.2124844  56.8681860  76.1403227  19.5358443  14.4934309  66.7959642
  19.6426630  13.6024320  66.4628839  18.7222338  14.4649935  67.2994184
 110.4151344  12.3036492  61.5571404 109.5720959  12.7329683  61.4115667
 111.0177040  13.0203092  61.7560101  68.8061237  43.9362526   7.6891094
  68.8574886  44.6790361   7.0875561  69.6378517  43.4767151   7.5738186
  72.4964905 101.9483185   6.6495061  73.4200048 102.0008278   6.8956810
  72.1005583 101.3938236   7.3218226  11.0515535   8.0471778  71.2083864
  11.2250221   8.0010051  72.1485996  11.5306628   7.3050439  70.8397055
  10.2544284  57.8822184  66.5587282  11.0541594  57.3631382  66.6436958
   9.5742083  57.3416281  66.9603443 106.3864136  23.8375044  74.0136194
 105.6351376  24.3285680  74.3463039 106.0011292  23.0826473  73.5686731
  35.2592301   1.9271372  66.2712049  35.4646897   2.0700268  65.3472996
  35.4039669   2.7788937  66.6832638  93.6967945 102.4066067  70.4256153
  94.4962406 102.7267742  70.0077486  93.4026623 101.6904068  69.8627949
 109.1900921  21.2857342  89.2451859 109.2992210  20.7243729  90.0127792
 109.4651413  20.7401204  88.5083771  92.2850704 105.6149960  33.5485101
  92.5241280 105.2274799  34.3904805  91.7468643 104.9481106  33.1220984
  98.9358997  21.4165974  49.8533392  98.2707500  21.7088652  50.4765415
  98.4373283  21.0158539  49.1412592 107.3812294  28.1040907  39.9417567
 106.7263794  28.2535529  40.6237173 107.4303532  28.9357805  39.4704723
   1.5863527  40.1839781  83.2015228   2.3390283  40.3750229  82.6418686
   1.3237248  39.2970800  82.9552174   7.1161181  54.0050983  57.6007032
   7.3626316  53.9542198  56.6771936   6.2914175  53.5222864  57.6554155
  28.6654711  65.1981354   8.9376068  29.4776154  65.4760981   9.3611509
  28.2169223  64.6734571   9.6007419  67.3712015  72.7281332   8.2682681
  67.1033001  72.4384356   9.1403556  68.1665421  72.2285175   8.0837440
  45.4773998  43.7246656  89.2010212  46.0024500  43.2414675  89.8390388
  44.6301270  43.8447666  89.6298981   5.3221202  52.0926476  63.9439440
   5.8883816  51.4248466  63.5571289   5.8367836  52.8984547  63.8989067
  18.1021750  28.2457662  68.8385820  17.8855813  28.6367059  67.9921293
  19.0260291  28.4582448  68.9711666 100.3785324  23.6318874  77.6125288
 101.2719059  23.5635495  77.9493380 100.2988720  22.9044151  76.9955397
  28.7742424   8.8177139  79.5690680  28.8950014   9.0746909  80.4831886
  29.6558213   8.6079282  79.2607832  45.5091572  97.1058273   7.5559735
  44.5926714  97.2454834   7.3176730  45.6494284  97.6753998   8.3123714
  90.4440689  38.9701605  69.5905685  89.6560097  38.4358335  69.4921207
  90.1418781  39.8689747  69.4600058  11.7680347  21.1955714  77.6663256
  11.7623127  21.1510897  76.7101765  12.4511623  21.8336391  77.8723288
  28.7544250  61.8083954  57.5371313  28.4141493  60.9357405  57.3398590
  29.4467974  61.9472122  56.8909216  23.5719323  34.9093723  81.6136169
  24.2870164  34.3680382  81.2791920  23.1215310  35.2225256  80.8292103
  88.4626198 106.4397144  89.5318699  88.1696320 105.6256676  89.9413872
  89.3939877 106.3000393  89.3607426   2.0162173  73.3688688  75.8527756
   1.8672313  74.0809536  75.2307129   2.9196954  73.4907770  76.1444902
  71.2903404  46.6875124  23.3983779  70.5307579  46.2697554  22.9925013
  71.9738483  46.0178661  23.3733273   9.0298706  25.0097442  61.4960766
   9.4272947  25.8639693  61.6651487   9.5613855  24.6328616  60.7948732
 111.3219547  33.0683827  55.5876684 111.2411022  33.9898610  55.8337831
 112.2371006  32.9700828  55.3248453 109.7278309 104.2141533  82.1801186
 110.1696110 104.3273544  83.0216885 110.3966999 103.8395500  81.6069603
   5.8450580  51.4416838  82.5101757   5.3745705  51.4910889  83.3423042
   6.7664957  51.5405512  82.7497768  11.0913098  32.5405192  54.4746447
  10.8652580  32.0758867  55.2804041  11.8913817  33.0194879  54.6907663
  15.5088747  68.4633541  75.9151793  16.3059783  68.3130836  75.4069662
  15.8002198  68.9694405  76.6736126  81.0920334  11.7147803   7.4043840
  81.3899994  11.5175068   6.5163904  80.1396561  11.7749655   7.3296237
  11.8859601  37.9320693  85.9173775  11.6699064  37.3958373  85.1544857
  11.7551267  38.8330030  85.6216908 114.0700387  17.5616467  63.8305140
 113.5354633  17.8327203  64.5768261 113.5884750  17.8745472  63.0647326
  11.8760228   7.2446150  65.0059366  12.2511661   8.0935019  64.7716475
  12.4750745   6.6039979  64.6225595  42.8539848  55.1293087  74.9372864
  42.2101545  54.5172405  75.2937889  42.6587057  55.9608793  75.3692436
   6.9320810  27.0340014  55.6722355   7.8007638  27.4354458  55.6506634
   6.9793487  26.3260984  55.0296879  58.6704302  74.8916674  11.4094484
  58.6528158  75.5230427  10.6902194  58.0112505  74.2395401  11.1718822
  88.5896492  30.9999943  86.1543846  88.2495689  31.6975546  86.7147255
  89.2475319  31.4305949  85.6084728  87.9104424   6.9943702  56.2935877
  87.3847485   7.7446526  56.0161877  87.3235035   6.4837384  56.8512535
 111.3142300  41.9877005  67.1598196 110.7483292  41.7459154  67.8929853
 111.8439770  42.7112389  67.4946165  18.0013716  28.8010788  66.1155462
  17.0627892  28.6553741  65.9969521  18.4016323  28.4399962  65.3245687
   7.3545390  16.0838902  79.1665220   8.2402623  16.2288392  78.8337803
   7.3980898  16.3466549  80.0859165  16.2593961  60.8791161  57.5791025
  16.3306761  59.9630976  57.3106623  17.1656859  61.1773062  57.6562595
  34.9348474  71.8098497   3.4193483  34.9109817  70.8529902   3.4101096
  34.5161724  72.0519114   4.2453921  17.3675895  75.2233171  63.7576962
  16.7309356  75.2693796  63.0444050  17.1594715  75.9744120  64.3133688
  15.8044267  67.8271294  45.1111126  15.6395972  66.8869829  45.1831293
  14.9714100  68.2351351  45.3474331  94.1085434  28.1986380  85.3624630
  95.0314617  28.4156132  85.4943275  93.9323330  28.4435892  84.4540691
 112.3370838  12.8275919  65.2228880 112.0464516  13.3599412  65.9634066
 111.6034794  12.2376990  65.0494432   2.2612716  31.8186617  72.3113537
   1.5596557  31.2927651  72.6952839   2.9074064  31.9043350  73.0123568
  42.4466658  40.6182003  89.2022800  42.2493792  40.9928465  90.0607395
  42.5275755  39.6782398  89.3640327  32.1624684  15.7514000  62.7218771
  31.8529701  16.5775120  62.3504162  32.0144463  15.8417058  63.6632395
  18.9375436  35.5236125  52.1510220  18.5143554  35.9825349  51.4253950
  18.3174717  35.5990601  52.8763151  89.7508812 101.8989086  91.6369724
  89.2580032 101.7424393  90.8314800  90.6553650 102.0142937  91.3457203
 107.0008850  29.2228603  54.7598648 106.2739563  29.7099018  54.3718004
 107.3438263  29.8045492  55.4382944  79.6146584  22.4547338  36.4030671
  79.7118616  22.1885872  35.4887652  80.3761768  23.0090904  36.5734053
 102.9288960  20.1188993  52.4661303 103.4447384  20.1606679  51.6609001
 103.1829071  19.2893434  52.8705406  20.3551030  96.8312073   4.2976409
  19.6726608  97.3035526   3.8207746  20.9870982  96.5792084   3.6243561
   7.4669486  46.5274858  74.5320654   7.7346367  46.9904995  75.3259182
   7.5840509  47.1678352  73.8303041  85.5873108  44.5503283  61.3978195
  84.8082161  44.2999983  60.9012508  85.2637768  44.7168446  62.2831631
  98.3451557   8.8124686   5.2798796  98.2821465   8.3207214   6.0986882
  98.3878517   9.7287458   5.5534559  44.0278530  69.0852642  12.2778904
  43.9412832  69.3015909  11.3494825  43.1267357  69.0296316  12.5958896
  18.4022665  24.1566825  66.4798641  17.6715779  24.4649911  67.0158386
  19.1821241  24.4905877  66.9232130  92.7114868  21.3406849  51.8114614
  91.9357872  21.6232371  51.3270283  92.3626137  20.8943295  52.5830126
  60.9545135  98.7513161  39.0195799  60.9163523  99.6941662  39.1802573
  61.3302565  98.3868027  39.8209381  10.8779931   6.7325342  61.8986845
  11.1050868   7.6134491  61.6009426  11.4869678   6.1583287  61.4342785
  42.9772520  88.9939785   8.9445353  42.9805660  88.9765072   9.9015701
  42.6045513  88.1496048   8.6908567  20.2372503  38.0426097  42.8464603
  20.1063347  38.1362748  41.9028902  19.3613887  37.8749943  43.1943130
  33.8434148  31.2114024  82.8266621  33.2741070  31.2665248  83.5941792
  34.2968440  32.0540810  82.8037739   0.0397920   6.7247206  46.4416218
   0.6562185   6.6540670  47.1704912  -0.4360628   5.8942145  46.4490175
 111.7119408  51.1546707  83.7779045 111.7311382  50.3383827  84.2774391
 111.3770103  51.8052721  84.3949795  16.7094123   7.4324512  50.9818792
  16.0675621   7.1979332  50.3116131  16.8857980   8.3609438  50.8301497
  31.0300016  19.3024206  62.4552202  31.4852118  20.1343560  62.5852203
  30.4411125  19.2316723  63.2065105   1.6574824  19.8263705  84.6316338
   0.8014772  20.1002574  84.3022823   1.7832525  18.9486849  84.2709637
  18.1345677  48.4001827  83.0423355  17.8212774  47.8346014  83.7481689
  17.4484324  49.0599680  82.9416656  94.5908642  12.5416172  43.0327463
  94.1542435  13.0775857  42.3706818  94.2729759  11.6535771  42.8697681
  19.5948815  31.4818072  78.8173866  19.9791145  31.2537336  77.9708767
  20.3330779  31.4694905  79.4266081   4.0983313  13.0534196  91.3594627
   3.9876354  13.7003183  90.6626892   4.2220941  13.5746241  92.1527195
   9.1704774  57.4534035  41.1729622   8.2970339  57.8339529  41.0806990
   9.4750845  57.3320723  40.2736712  33.0414796  45.7030535  43.5439348
  33.3684468  46.5491199  43.2381630  33.7673903  45.0973892  43.3940744
 110.1240349  42.5211191  73.5725164 110.2778530  41.8716621  72.8863859
 109.8789406  42.0048428  74.3403864  88.6044312 101.4519882  89.3074512
  89.1482353 101.0908031  88.6074162  88.0335331 100.7281113  89.5649624
  27.5016475  64.7886181  88.9888859  27.4589562  64.8035002  89.9450207
  28.4376550  64.8160982  88.7904739  20.6682920   9.2577344  88.6629009
  20.7198882   8.8125277  87.8171062  19.7921383   9.0519428  88.9888382
  99.3663788  97.8833389  86.6565704  99.0433311  96.9911003  86.5310001
 100.0825310  97.9695511  86.0273361 108.5048771  12.1667731  49.3219137
 108.8094807  11.7722583  48.5047197 108.2759380  13.0650795  49.0834475
  26.6539311  43.5761023  51.8763971  27.1781087  43.1439352  51.2020826
  25.9698963  44.0360928  51.3898373  15.8025765   7.9966694  66.8847609
  14.9674428   8.0807185  67.3448896  15.6907308   8.5161620  66.0886145
  39.9121165  27.1278763   6.5717775  40.5189848  26.4703679   6.9118118
  39.2924929  26.6292238   6.0391927  26.1064863   5.9896564  49.9899578
  26.7827988   5.9873885  50.6673241  26.3371038   5.2569824  49.4187832
  74.9221134  72.1195126   9.5397359  75.0697088  72.6548338  10.3194034
  75.7161474  72.2330952   9.0173912  17.1845436  51.5754414  56.5105343
  16.8372583  52.4642277  56.5859175  18.0698395  51.6926432  56.1659384
  26.5423369  53.0917358  60.2848339  26.1092496  52.3456717  60.6996250
  25.8473229  53.5289764  59.7928905 113.1914234  62.3041582  41.3278818
 112.6519871  61.9166565  42.0171404 113.6026096  61.5553474  40.8960915
   8.6701280  27.7722430  48.5283852   8.4749782  27.1472001  49.2265797
   8.4387219  27.3108459  47.7222872  99.0766335  52.7232313  92.4441719
  99.4325733  53.4681559  92.9285526  99.7488022  52.5165510  91.7947865
   5.0539118  78.7733936  79.1548681   5.1267499  79.0275764  78.2349157
   5.8444780  79.1253996  79.5639277  25.0114393  66.8824863  69.6322823
  25.3484964  66.3433886  68.9167404  24.9822354  67.7685499  69.2713547
  10.1973283  36.9654131  63.9980173  10.2480972  36.0102868  63.9607382
  10.7011652  37.2618103  63.2400417  60.5754328  99.8029041   1.2288561
  61.0789537  99.2921734   0.5949371  60.0471306 100.3951550   0.6937230
   8.2337767  32.4555302  56.4564800   7.6154190  32.1530795  57.1216011
   8.0325824  33.3849669  56.3473845  27.4243331  48.7682772  77.5372505
  27.0897484  47.9255724  77.2304440  27.2607851  48.7619066  78.4803534
   7.0692086  37.5168014   3.3025354   7.0569485  37.0989537   4.1636303
   6.8862754  38.4391975   3.4812823  27.5502515  79.6053314  89.4289684
  27.4060273  79.2609501  90.3103542  27.0470142  80.4191971  89.4045162
 106.7896366  47.9389095  70.6073999 106.6956997  47.7174664  71.5338802
 106.3828087  47.2069597  70.1437473  25.7382083  36.0053039  83.0539417
  25.6270599  35.4216957  83.8044643  25.0118351  35.7860255  82.4703884
  12.0213211  11.2464738  57.7425385  11.9307327  11.5044546  58.6598539
  12.0059156  12.0723224  57.2588348  22.9716039  47.9556036  39.2245984
  23.4934402  48.0406618  38.4266758  22.3902535  47.2148371  39.0527582
   7.6027185  18.1660128  74.1642904   7.8387612  17.8367805  73.2970428
   7.7866805  17.4362445  74.7557545  33.9961815  52.1803093  78.9359379
  34.2839718  51.2775898  78.7998772  34.5888686  52.7044296  78.3971930
 108.4207249  45.6601095  62.0986462 107.8989983  45.0765991  62.6496029
 108.1573391  46.5407324  62.3657799 106.6476536  35.0404668  66.9670868
 105.8278751  34.7488427  66.5681410 106.4725208  35.9397769  67.2442245
   2.9662639  41.7556906  63.2070398   3.2181284  42.4924803  63.7637568
   3.7573537  41.5506697  62.7086687   1.5379062  15.7852423  87.9776955
   2.0325714  14.9741924  87.8604889   2.1027300  16.4654136  87.6108551
  15.3289509  65.6771851  31.7263293  15.3038883  66.4004850  32.3527837
  14.4224072  65.5817795  31.4342546 105.8330345  11.9901907  64.7750711
 105.8873177  11.0740161  65.0469303 105.3729916  11.9642079  63.9360714
  15.4547822  10.1573694  90.8594608  15.6897414  10.9293890  91.3742542
  16.0115683  10.2089930  90.0825787  64.7551966  95.5894756   1.1175627
  65.2712393  94.7955894   1.2578396  63.8742018  95.3574944   1.4112642
  17.3071599   8.1839859  30.2675629  18.1411266   8.6343956  30.1339102
  17.0884049   7.8248650  29.4076729  30.4919028  79.1447258  11.5110719
  30.9503293  78.7110281  10.7913601  29.6732807  79.4530106  11.1224163
 110.2679253  27.0223308  51.5734720 110.9060860  27.4541831  52.1413517
 109.4263172  27.1660519  52.0062304   3.7426561  39.4140315  84.9140167
   3.7682530  39.5800781  85.8563519   2.9016387  39.7724843  84.6304131
 103.4189987  29.5574355  48.6548042 103.0984020  29.7641397  47.7768993
 104.1242981  30.1865363  48.8065100  13.5315120   5.8636224  61.3551664
  14.1681552   5.1936036  61.1061859  13.4921658   5.8134919  62.3102427
 102.4142361  66.1619091  88.3078861 102.0506191  65.5677032  87.6514244
 101.8193626  66.9118118  88.3078384  17.5757539  69.1468000  71.0325193
  16.6798043  69.0161896  71.3430786  18.0002201  68.2987165  71.1621857
 107.2129059  50.8195734  55.9577847 106.6829109  50.2190304  56.4818859
 106.5788364  51.2843943  55.4117680 107.4825191  16.9154119  71.4314318
 106.7089844  17.2267318  71.9014835 107.8981209  17.7115738  71.1003160
   1.1548943  46.0636902  69.2159700   0.8144550  46.5560484  68.4690332
   1.1057560  46.6767645  69.9494267   6.3563180  43.9625645  59.9576569
   7.2652435  43.9027214  60.2517748   5.8567172  43.4949589  60.6269646
  43.6929703  82.6049328  15.4020083  44.1690969  82.2955704  16.1726129
  42.7874756  82.3353481  15.5557513 107.1759987  23.4346986  87.9214573
 106.2585354  23.7066770  87.8985596 107.6480579  24.2097735  88.2258415
 103.5167027  48.8340664  63.0539227 103.7281322  48.5898685  63.9549732
 102.5743103  49.0013313  63.0659485  47.4942541  92.2738743   4.0667340
  46.9692612  91.4758015   4.0059364  46.8787289  92.9433060   4.3654290
  14.5409119 103.1680012  29.6951199  15.2641809 103.7211514  29.9903059
  13.7559927 103.6001873  30.0317812  23.5182452   3.3565509  64.0635872
  23.9497113   2.5041893  64.0040112  24.1620183   3.9754823  63.7190437
  15.8685064  41.4217567  42.2111177  16.1341691  41.5244818  41.2972784
  15.6883872  42.3131418  42.5098324  73.1466913  92.7960587   3.0392954
  72.6510668  92.8079128   2.2204851  72.8057957  93.5396385   3.5363975
 102.7966881  25.5812526  53.5649443 103.4628582  25.7405114  52.8962994
 102.5791454  24.6539259  53.4702158  16.4429486  42.9670620  69.6989584
  16.3674462  42.9284573  68.7455225  16.1719513  42.0984221  69.9960470
  52.5083733  16.2660241  76.7815828  51.9692183  15.9736073  77.5164557
  52.6099825  15.4873157  76.2342930  14.2067289  16.2703395  74.1560364
  13.7811244  16.9770122  73.6705399  15.1129889  16.5613127  74.2573261
  72.2135448  60.0513029  62.9716587  72.3325205  60.3308439  63.8793659
  72.7413416  59.2564869  62.8946829  86.7246914 103.3652496  80.1444149
  87.6787567 103.4327316  80.1066113  86.4810562 103.8531017  80.9311008
 108.2196617  96.5465546  61.5205669 108.9578629  96.5921879  60.9129381
 107.5826740  95.9827709  61.0816669 108.5308075  16.5701914  91.3363934
 107.9573822  17.3339999  91.3997459 108.1089401  15.9079230  91.8838120
   8.5674936  86.5274906  92.0936108   9.4086027  86.9243431  92.3200607
   8.4138972  85.8817863  92.7833271  16.5973520  17.8414798  61.8593693
  15.7727587  18.2479262  61.5927649  16.8927765  18.3652651  62.6040888
   8.0475873  29.0304661  52.6624966   7.1692353  28.8500142  52.3275805
   8.4598255  28.1692195  52.7299261   9.7969908  45.6422853  67.1332788
   9.9282491  46.5888739  67.1877718  10.5191648  45.3313780  66.5873528
 103.5845470  23.1309795  86.8289280 103.8273144  22.5382137  86.1176395
 103.6079311  22.5846338  87.6145363  18.2739472  83.5096264  49.7411919
  17.9945540  82.6267529  49.4989157  19.0381086  83.3737469  50.3013945
  21.5978861  37.5899005  64.8433542  22.1023130  38.3925104  64.9760342
  21.1630440  37.7169394  64.0001440  76.1195135 104.7128296  72.1803427
  76.8221712 104.2411423  71.7331076  75.3414202 104.1734505  72.0393515
  26.2060571  91.3869858  28.2539582  26.0945320  91.6257858  29.1741586
  27.1518087  91.4215660  28.1104612  16.1308479  58.0838013  57.5220156
  15.3492975  58.0742121  58.0745697  16.7279732  57.4639797  57.9409409
  97.0993805  42.0917559  76.1587906  97.2026730  41.6791868  77.0163202
  97.8582191  41.7942476  75.6569052   1.3852002  50.5048513  62.6365900
   1.5693760  50.3842735  63.5681343   1.4279419  49.6225691  62.2678280
 110.5014229  41.3581753  55.5105352 110.6398010  41.7541265  54.6501255
 109.9619770  40.5871010  55.3353977   6.6989881  42.3054266  65.0649548
   6.0327619  42.3010588  65.7522345   7.2395241  43.0708838  65.2602148
  33.8530087  57.5138950  65.4214621  32.9272866  57.6144886  65.6431580
  33.9630175  56.5747213  65.2728415  57.3324966  30.9784651  82.2203636
  56.4080429  30.8233309  82.0265770  57.6619864  30.1284289  82.5121021
   3.1250232  79.9039698  86.7210960   3.1581888  80.0359821  87.6685715
   3.7716854  79.2188072  86.5519524   6.6772830  51.3664150  49.4368219
   5.8304268  51.7252684  49.7019434   6.7496246  51.5847301  48.5076618
  97.9597569  53.4823370  84.6397877  97.1699333  53.1957865  84.1811943
  98.4707642  53.9410782  83.9729595  78.4151459  89.3915653   1.4596851
  78.5254955  88.6041260   1.9925913  77.5269461  89.3214607   1.1098061
  24.2411017  37.1666217  39.1455317  24.7379708  37.9810929  39.2229271
  24.8185515  36.4978766  39.5137239   5.8357590  44.4413042  91.3386250
   6.3030601  44.8440886  92.0704842   5.4167444  43.6688423  91.7180347
   7.4873585  62.5797749  61.7804003   7.3683059  62.0614195  62.5762415
   6.6438347  62.5260735  61.3311577 111.8169022  34.8007941  84.1649818
 111.8206596  35.2601695  83.3252239 111.2818336  35.3512859  84.7367287
  16.6633010  32.3335648  66.0054398  16.8781817  32.3415327  66.9381714
  16.3820267  33.2288480  65.8167982 105.9554005  14.3126512  90.1399899
 105.6573105  13.6739695  90.7876396 105.1494598  14.6638989  89.7614288
  46.6645050   2.1724986  42.8349400  47.5035667   1.8599966  43.1733990
  46.8774080   2.9897264  42.3843384   2.4008451  43.1849957  60.5148363
   3.2940754  43.2177639  60.8573246   1.8843904  42.8101063  61.2282562
  27.3107171  42.3399258  36.2798262  26.9420195  41.8033075  36.9814920
  27.0283127  43.2309484  36.4861298  13.2335079  39.1236591  76.7758226
  13.1618762  39.5657611  75.9298658  12.9442894  39.7770190  77.4127722
  39.3055725  31.7503214  73.0962372  40.0614595  31.1957097  73.2892942
  39.0259099  31.4782810  72.2221565 101.9129944  53.1163025  57.3982286
 101.7471504  54.0589714  57.4082136 101.4466763  52.7829361  58.1648111
   2.1027631  33.1780672  50.0090504   2.1379048  32.2373819  49.8355293
   2.9793149  33.3960962  50.3258324 100.8947849   7.8128290  70.0303841
 101.6955471   8.1818146  70.4030275 101.2007809   7.1282238  69.4354820
  17.7794194  39.9463582  79.6516275  18.3113492  39.3036509  80.1208973
  16.9214356  39.5306540  79.5662832   3.4538567  14.5970058  49.8701811
   3.0497319  14.9091482  50.6797981   2.7154511  14.3461907  49.3151283
  71.9279099  25.2076054  84.9655342  72.3742151  25.7089853  84.2831421
  71.2707043  25.8098936  85.3141880   2.6886231  27.3148274  62.3458672
   1.9864736  26.8892217  62.8378820   3.3717608  26.6478014  62.2778130
   5.4105964  33.4197191  92.6871957   5.1021448  32.5720553  93.0074300
   4.9575296  33.5397391  91.8525944 107.0842552  29.0283704  50.7717037
 107.4635220  28.3180952  51.2892866 107.4565887  28.9129138  49.8974800
 110.7815742  31.5955758  58.6099386 109.9425793  31.6982841  58.1607485
 110.5465603  31.4548850  59.5271111 100.4245377  41.4640427  72.6791430
 100.1488495  41.1963320  73.5558176  99.6214676  41.7721367  72.2591686
   1.3629968   5.4077667  62.5445271   2.2055006   5.5224967  62.9841375
   0.7319004   5.8405340  63.1195593  20.5962992  24.8425913  73.1011391
  21.4540529  24.4212627  73.0465889  19.9725556  24.1165304  73.1039619
  36.9365931  24.8242402  53.7170029  36.5905595  24.0630913  53.2510185
  37.7069712  24.4927573  54.1783810  31.2076068  16.4127707  84.0836048
  31.6950107  15.6471968  84.3878460  31.8776512  17.0802915  83.9363384
   6.2977016   8.6565733  74.2007160   5.6272668   7.9999036  74.0122128
   6.4880848   8.5439903  75.1320124   9.7519445  16.4956081  78.0472183
  10.1626134  16.4354515  78.9097548  10.2305901  17.1950257  77.6023102
 108.0466557  15.6036687  65.5292082 107.3824120  15.7170010  66.2090397
 108.1339264  14.6550846  65.4353857  55.9180164   8.9190751   0.1678467
  54.9986887   8.9712805  -0.0935778  55.8907604   8.6602449   1.0889849
  90.5560589  37.4634504  89.6822453  90.7197952  38.4028625  89.5990276
  89.9733734  37.2562480  88.9516449 109.1781425  24.3560123  78.7205601
 109.8117638  24.3377233  78.0033255 108.3594990  24.6342421  78.3099031
   8.0767781  44.8112535  69.7419786   7.7528495  44.1278696  69.1552210
   8.5463595  45.4167271  69.1682816   8.1120807  48.5141134  72.4699736
   7.7918130  48.6004210  71.5720844   9.0302330  48.7806892  72.4234390
  14.3320620   9.2348880  84.0276432  14.6766794   9.3673700  83.1445122
  14.7378957   8.4199750  84.3233585 108.9704418   8.4773570  47.8863716
 109.1046047   8.6491102  46.9543123 108.0562878   8.7132281  48.0442286
  18.1393707  33.9206219  69.6376991  18.5413897  33.1150103  69.3127298
  17.4617374  33.6223221  70.2443838  19.0585101  82.3839569  12.9832137
  18.5421455  82.1383286  12.2155774  19.6759450  83.0386543  12.6570511
 107.1636105   3.5534656  63.3988094 107.8222942   3.2295358  64.0131664
 106.3290310   3.2653028  63.7684917  33.2174468  43.5043192  64.3867302
  32.9678273  42.7106094  63.9134932  33.6436486  43.1849194  65.1820707
  69.6142912 106.1458588  27.4396038  69.7272348 105.2764797  27.0553589
  69.6303988 105.9940147  28.3845472  27.7648616  50.1323509  52.3229170
  27.5231385  51.0043955  52.0109320  28.5355210  50.2792597  52.8713083
   7.6216316   9.9065131  65.2517557   7.5542498   9.4570827  66.0941935
   6.8472594   9.6223950  64.7661066  12.8842068  28.1933808  65.1361799
  12.9327512  28.8315773  64.4244337  13.0195487  27.3475170  64.7090626
  16.1597335  30.9393454  75.7557774  16.7409754  31.6946292  75.6666851
  16.4279735  30.3465605  75.0537205  94.1032028  21.5170622  21.6823959
  93.8604259  21.8886542  20.8343339  94.3293667  20.6072235  21.4893270
 104.2364216  46.2423754  33.3239841 103.4981251  45.7404995  33.6693501
 104.9556923  46.0564232  33.9275527 113.0165863  47.7367926  74.8920107
 113.2219601  47.1782541  74.1422844 113.7896633  47.6780081  75.4533672
  22.8348064  44.0399170  81.3050938  22.5905752  44.9396992  81.5218258
  23.7904024  44.0571785  81.2524605 110.7777596  55.6142235  68.1647635
 110.0746536  55.1385403  68.6070347 110.3479576  56.3830233  67.7899933
  19.5459032  31.3751459  47.0113993  20.1364708  31.6981840  47.6919174
  18.7024081  31.7794466  47.2145891  85.3824997  16.9723260  28.2636261
  85.3624630  17.8655386  28.6071396  85.2598858  17.0758176  27.3199701
  14.4904304  37.3226595  63.4917116  14.8007596  36.4251018  63.3720541
  13.6444449  37.3452139  63.0444622  19.3415070  65.5745506  56.7191792
  20.1565576  66.0684538  56.8085194  19.4270778  64.8558569  57.3455906
  95.3493977  30.6700373  81.0919571  96.2502575  30.7570720  80.7803345
  94.8700809  30.3156567  80.3430271  93.7172413  30.0643635  51.7347050
  93.5315895  29.8493147  50.8206367  94.6722507  30.1095152  51.7809248
 113.1793690  58.8685560  60.4337025 113.9576340  58.7411547  60.9762049
 113.2397556  58.1869173  59.7644091   8.1349647  62.8426266  36.4810348
   7.8746229  63.7231350  36.2105513   8.7210071  62.9839325  37.2245526
  59.0283775  43.8437223  76.1101627  58.6018181  44.6196842  75.7466221
  59.4174051  43.4070969  75.3523684 101.3393688  50.9699249  53.0239773
 101.6298199  51.8200588  52.6936102 100.5528259  50.7714987  52.5158310
  27.0324254  32.0501685  30.3460383  26.5569854  31.5764093  31.0284901
  27.9240394  31.7049479  30.3916049  32.9190636  52.0250702  68.6855268
  32.4247289  51.4776993  69.2956543  33.5520482  52.4859619  69.2361069
  16.8092799  63.7609720  67.0770025  15.9145236  64.0644073  67.2305250
  16.7374885  62.8068209  67.0511198 113.3117771  11.7164159  14.2888987
 113.9710999  12.3895156  14.4575870 113.0468559  11.4173222  15.1587224
   3.4887308  27.2835946  38.5289717   3.4482908  26.5956283  37.8646684
   2.8716427  27.0012617  39.2040443  96.5413284  88.8403034   3.9033955
  96.1665821  88.5553837   4.7368342  96.5452480  89.7960091   3.9568022
  15.5270898  35.6473374  26.9599390  15.4035056  36.5107942  27.3541474
  14.9507642  35.6482506  26.1956882   8.7383115   2.5222903  82.8626728
   9.2841691   3.1427202  83.3457184   8.7597239   2.8374368  81.9590950
  18.2294703  43.6137342   6.8131274  18.7313616  43.5270882   6.0026777
  18.0864477  42.7129984   7.1037382 113.3690438   0.5843136  87.9395866
 113.9794287   0.0213120  87.4634647 113.8734421   1.3743851  88.1334782
  37.5313544  53.7670898  45.6562138  37.7729821  54.6921015  45.7031965
  36.6847777  53.7178326  46.1001873  36.7808199  49.4843245  68.2697868
  36.5253544  49.1564369  69.1320276  36.2694669  48.9603806  67.6531553
  16.4794016  46.7132854  68.2399225  15.9459901  46.0791731  68.7191010
  17.0792544  46.1778164  67.7206182  37.1820068  51.3706207  52.7403831
  37.0377231  51.8709087  53.5435820  37.1570444  50.4556274  53.0203867
  23.7591982  22.9206848  65.4406357  23.9300108  23.3551764  66.2762642
  22.9404044  22.4451494  65.5809069   2.4204652  30.4273081  65.3442478
   2.6656723  30.5636835  64.4290924   1.6436526  30.9727478  65.4679060
  26.7084050  87.9928017  68.4256744  26.4478564  88.7779903  67.9442072
  25.9675145  87.8091145  69.0032291  41.6121101  92.9423523   0.0750393
  42.0510817  92.4843407   0.7918122  41.0101414  92.2940350  -0.2904165
  35.9981012  65.2647829  42.1326113  35.8126140  66.0443020  42.6562309
  35.1669312  65.0609016  41.7038679   2.3930359  12.5126231  53.7967443
   3.0853975  12.2876656  53.1752443   1.5851444  12.2308803  53.3676004
  43.0014515  55.2181244  86.1057281  43.0514622  54.2638493  86.1613464
  42.0675421  55.4037142  86.0077381   5.7184702  52.7077723  44.0316439
   5.6206930  53.6343336  43.8121843   5.2606475  52.2457027  43.3294153
   2.1788672  45.3481340  80.8476734   1.5732063  45.2200747  81.5777493
   3.0457738  45.3519487  81.2534904  37.7952266  27.5220990  78.6544847
  38.7376761  27.3940086  78.5467148  37.3973489  26.8637204  78.0848646
  19.7044563   2.3837058  70.5550766  19.6379662   1.6908799  69.8979568
  18.8094020   2.7089620  70.6515980  36.4717579  79.0434408  22.1964884
  36.3164639  79.8804712  22.6340985  35.8759141  79.0506363  21.4473891
  12.0084059  45.4793978  74.7440052  11.7403603  45.6922865  73.8501024
  11.4902449  44.7075510  74.9720287  44.0971661  21.4656472  63.9246130
  44.4350719  22.2571969  64.3435383  44.2989492  21.5812850  62.9960966
  14.9408484  71.1415243  69.5507669  15.7052517  71.7114115  69.6353102
  14.3883920  71.5765953  68.9013577  20.0040221  20.4115939  70.7464218
  19.9220049  21.3648081  70.7166386  20.8252764  20.2563214  71.2129641
  15.0337756  86.8496037  41.9347239  14.9040592  86.6726589  42.8664398
  14.1491425  86.9620514  41.5868568  34.1406775  42.3223495  66.7133999
  34.9538779  41.8179941  66.7370081  34.0101409  42.6087523  67.6173735
  19.0587032  41.9189882  31.5368056  18.6010492  41.7419291  30.7149577
  19.9415255  42.1743536  31.2691379  71.7742157  95.5361271   8.8215232
  71.0118151  95.9144402   8.3835053  71.7353439  94.6039772   8.6074817
  30.0484681  24.7936583  38.6039925  29.5892406  24.0033960  38.3196950
  30.2438164  24.6378350  39.5280004   3.9802977  39.1777301  78.6535072
   3.3795875  38.9636087  77.9396915   4.3266428  38.3316255  78.9370203
  64.3722630  59.5128822  12.2585237  64.3298769  58.5735416  12.4376237
  64.4655275  59.5714474  11.3076806  27.0838976  58.7573814  90.9816837
  26.1547422  58.6353731  91.1766624  27.2548032  58.1649256  90.2495480
  27.0952773  27.5010896  65.1890421  27.6611638  28.2212949  65.4670906
  26.4552808  27.9104352  64.6067429  40.2226496  58.8843679  63.2977390
  40.7579422  58.2954788  62.7658558  40.8005714  59.1544294  64.0113926
  19.9989974  63.9568472  58.6800003  20.0956702  64.3476915  59.5484066
  19.1292655  63.5573006  58.6926460 109.6354580  15.1387858  18.0359614
 110.0891781  14.8552251  17.2422600 108.7990952  14.6738100  18.0128264
  31.9542718  51.5348721  76.1220551  32.6814938  50.9968472  75.8091545
  31.1963463  51.2247610  75.6264687  38.6636853  63.2808352  58.2166672
  38.6309171  63.6099052  59.1149282  38.7359166  62.3311377  58.3119869
  32.6444697  14.7191715  59.7031641  32.5086331  15.6630242  59.6199560
  33.4824538  14.6370077  60.1584244   8.6708671  33.6632657  46.3347864
   8.3811224  33.7029195  45.4233551   9.1101110  34.5006967  46.4831209
  54.0010071  39.6231294  54.4684076  53.6478329  38.7473631  54.6250391
  54.8608637  39.4682217  54.0774107  21.8577671  63.3056355  52.1998739
  21.6631269  63.9782333  51.5472174  21.5201259  62.4957991  51.8172646
  31.1704683  78.4531450  81.2063789  31.5826178  79.3125391  81.1180305
  30.2324867  78.6401367  81.2445354  80.2695751  98.0010319   1.4063540
  80.5201817  97.3038673   0.8002320  79.4014931  98.2750893   1.1104500
  89.4214058  21.0537577   8.8982838  89.5604897  21.0407352   7.9513311
  88.5897827  20.5969286   9.0245259 108.7393475  21.3389754  65.6193066
 109.0168095  22.2449422  65.7552242 107.9620361  21.4071536  65.0649071
  21.4873171  45.9029627  20.9788060  22.3031688  45.6701899  21.4220166
  20.8596587  45.2412748  21.2694049  29.7659683  44.5874977  29.5512795
  30.4352975  45.0679541  29.0640545  30.2520943  43.9105749  30.0221229
  23.1358504  36.8795991  42.7813053  22.2621012  37.2568917  42.6791191
  23.0650401  36.0046148  42.3996973  41.2839079  59.0937662  55.0891781
  42.0679903  59.2385340  55.6187916  40.5630779  59.1111088  55.7187271
   4.6555197  38.9028072  71.0589886   5.3890955  39.4913077  70.8807659
   5.0503755  38.1587172  71.5135765   0.3162723  33.5300231  35.6688261
   0.0973180  33.5751367  36.5995550   1.2711230  33.5923219  35.6441116
  36.3795018  44.0883541  54.2023182  37.1985030  43.5984612  54.2762804
  36.2493205  44.1964626  53.2601976   3.0467317  59.3888235  29.0426683
   3.6041695  60.1253605  28.7916613   2.3614813  59.7806787  29.5840669
   9.4801545  65.7824373  74.9587727  10.4095030  65.8842230  74.7533846
   9.1275579  65.2747011  74.2279482   8.7381333  48.2219696  81.4165115
   8.0880058  48.6710835  81.9567585   9.4848251  48.0897474  82.0006371
  20.7026172  40.9870911  67.2870398  21.3959885  40.7735538  66.6626453
  20.7031822  40.2559853  67.9048681   2.7727389  97.8546143  77.5032520
   2.3341337  97.6782799  78.3355761   2.1170838  97.6454163  76.8379831
  27.8397584  49.9858952  42.8273344  26.9428515  50.2463007  42.6176262
  28.2538104  49.8458242  41.9757605   5.3360873  67.8032541  75.9784746
   6.0635078  67.3048735  76.3509083   4.9644896  68.2769775  76.7226076
  39.9137259  36.1640763  61.5784121  40.6170654  35.7302999  62.0615053
  40.3494740  36.5566993  60.8219719  25.7553482  83.9232445  45.5669975
  25.0220942  83.7372398  44.9805069  25.3436923  84.2230511  46.3774824
  18.1528544  57.9977465  40.9634924  18.2902157  58.7892342  40.4429960
  17.6726794  58.2987165  41.7349052  18.3310151  78.6951685  69.6150780
  18.9937818  79.3221331  69.3254423  18.8314259  77.9908466  70.0270891
  28.2890749  38.8675332  79.8136997  27.8412700  38.8985634  78.9682817
  28.4608889  37.9372716  79.9597311  14.5156026  62.2323322  31.2038279
  13.6175346  62.3903036  30.9127045  14.5184934  62.4942017  32.1245074
  34.9538350  60.3098869  55.0361824  34.0289283  60.2336025  55.2706242
  34.9470282  60.5509806  54.1098690  35.7429457  52.3274231  73.7854576
  35.2876616  52.9480124  73.2164097  35.2138495  51.5308762  73.7429714
   3.0971169  51.7273712  70.8479214   3.1943434  51.5371132  71.7809725
   2.1924597  52.0268011  70.7575369   4.8858121  59.0830421  65.2419567
   4.8304689  59.3409491  66.1620951   3.9752689  58.9667606  64.9706268
   9.1463900  59.1116476  88.9707088   8.2977271  59.1515493  88.5297871
   8.9409542  59.2358398  89.8973179  25.5035448  32.5051355  50.6496716
  25.9883118  33.3289742  50.6999254  26.1249900  31.8427491  50.9518051
  96.8481064  33.6161685  55.1303959  97.6479244  34.0324974  54.8091364
  96.8299294  33.8216805  56.0650969  38.5981584   1.1618061  68.8829565
  38.2701802   0.6288470  68.1586552  38.4698558   2.0649689  68.5930157
  14.6925473  38.0296421  59.8476505  14.5438266  37.4282193  60.5773115
  14.5114529  37.5074649  59.0661335  14.1164351  56.3088655  40.4199219
  13.7615609  55.9055233  41.2121391  13.6510217  57.1420527  40.3462505
   8.8455093  57.8832483  56.9906902   9.2957485  58.6610317  57.3201942
   8.1511325  57.7200270  57.6289940  16.9803834  63.6577368  80.3404808
  17.4949992  63.0294704  80.8471107  16.1177623  63.6505747  80.7552910
  19.6139789  42.8334284  38.5810113  20.4407287  42.9003334  38.1032658
  18.9626634  43.2044697  37.9857421   1.9756107   1.7130132  11.1414099
   1.3570517   2.3216575  10.7374680   1.9504988   0.9381864  10.5799425
  54.0286779 101.1723804  76.4550304  54.6640921 100.7685852  77.0461607
  53.8984823 100.5232430  75.7637310  33.6506271  55.4315281  63.0614805
  32.8417230  55.2453327  62.5847864  34.0473938  56.1603975  62.5844526
 112.8657722  57.8643417  41.4020729 113.3699226  57.0822620  41.1775494
 112.9690742  57.9520464  42.3496342 102.3596001  42.6232147  56.6553736
 101.8079567  42.0228434  57.1568441 103.2213879  42.5567436  57.0666409
  12.2117686  64.3233633  68.3386087  11.4940071  64.2125034  68.9621115
  12.4699879  63.4305954  68.1094313 105.2097321  34.9043965  77.9052162
 104.4282436  34.9221611  78.4576607 105.3376961  33.9780259  77.7010298
  13.2168615  48.9422846  50.5991983  13.2806480  49.8452330  50.9104013
  13.7583125  48.4402084  51.2082815  47.8693771  46.3459206  73.7966633
  48.8110924  46.2736750  73.9521694  47.7811289  46.3182545  72.8439426
  25.6824183  50.6448126  73.0818319  26.0380530  49.7717381  73.2476377
  25.1162553  50.5317926  72.3183441 109.1944218  48.7189293  68.8432360
 109.3442440  48.2301950  69.6525097 110.0006294  48.6026955  68.3404970
  29.4476533  91.6424465  20.2710104  28.6889625  91.8687344  20.8089828
  29.1759920  90.8602905  19.7907364  57.2128963  95.4114723   3.5379565
  57.7361727  94.7331047   3.9648381  57.8544712  95.9612846   3.0881616
  18.0488241  18.6716425  59.8923969  18.5008216  19.3033922  60.4517031
  17.6996446  18.0201483  60.5005598  53.0371857  34.6943235  28.3045387
  53.8754892  35.0405216  28.6105251  53.1242371  34.6633744  27.3518085
  46.1789608  89.3627262  16.1655056  46.5672064  89.0465355  15.3497136
  45.3728771  89.8011303  15.8929861  41.4192152  59.1431046  37.7192211
  41.9356823  59.7184849  37.1549296  41.9822598  58.9817524  38.4763074
   7.8777075  43.8498783  75.0314760   7.7309912  44.7843027  74.8846388
   7.1083063  43.5608196  75.5220890  34.3640637  45.3677034  69.1929483
  34.1724253  45.9963465  68.4970236  33.7499928  44.6490526  69.0423059
  24.6302867  59.4876146  52.0057106  25.0613952  58.9596748  51.3336563
  25.3055787  59.6285868  52.6692915  12.6856256  47.3654366  55.5811930
  13.1375885  48.1567764  55.8740139  12.9465330  46.6936159  56.2111235
  77.7471161  87.5679016  16.0260773  77.5823927  87.9701424  16.8788958
  76.8756199  87.4172306  15.6599855  29.2406893  50.3848314  75.9661484
  28.3552837  50.0243092  76.0142088  29.5724106  50.3255081  76.8620682
  10.1892078  75.5946732  78.6316681  10.6184995  76.4345694  78.4688425
  10.1022553  75.1981068  77.7648306  36.9028497  64.3366480  67.5648451
  37.6632690  64.1079569  68.0993509  36.6470003  63.5138988  67.1478891
 102.9937840  62.0509195  84.1011429 103.8783169  61.6877222  84.1448593
 102.6899910  61.8361330  83.2192039   7.1057981  35.8630943  64.8905134
   7.7815944  36.3928390  65.3134775   6.2930149  36.1190772  65.3265047
   9.5731807  64.5042658  47.9965925  10.1464152  64.0527487  48.6160803
   9.5314229  63.9201546  47.2394228  43.0501366  46.6760397  61.5254688
  42.4849987  47.3628187  61.8792820  42.8985643  46.7041826  60.5807638
  10.3583992  87.2748280  88.0833721  10.3547454  86.3188076  88.1306934
   9.4366539  87.5132751  87.9845619  25.5813146  54.3093920  48.2011557
  25.7418203  54.3378496  49.1443729  24.8161077  53.7423611  48.1054163
 113.4932232  31.5931416  57.9617453 112.5959682  31.5654206  58.2940054
 113.4004211  31.5012455  57.0134926  19.0321195  59.0985203  67.5788260
  19.1675270  59.9465704  68.0015659  19.1176713  58.4611177  68.2877874
   6.5786994  41.1283445  75.4719591   7.2621542  40.5865431  75.0775290
   6.0120732  41.3700676  74.7393370  21.0318089  40.4533529  87.4867344
  21.8985033  40.8510113  87.5700283  20.4231834  41.1889410  87.5553703
  10.5018842  36.4610457  84.0452862  10.8365059  36.3907576  83.1512451
  10.3815341  35.5544853  84.3279457  22.5373912  55.4844093  56.7166805
  21.6994596  55.9122705  56.5405178  23.1261635  55.8241844  56.0427856
   5.6443214  53.2058001  77.4934006   5.8097768  52.3583078  77.9064465
   5.3222317  52.9872370  76.6189146  98.5912418  57.8809929  62.8289032
  99.3183899  57.5704670  63.3684063  98.0165958  57.1205664  62.7407837
  27.6472926  51.7917585  79.6725321  27.0537186  51.3145351  79.0927410
  28.5207629  51.4926767  79.4198895   6.0159475  58.7082815  51.1544275
   5.9494472  59.3933487  50.4892302   6.6270405  58.0721140  50.7828236
  25.6540084  28.5263848  55.5515862  24.8219085  28.9610457  55.3647470
  26.1042094  28.4978867  54.7073460 108.1998348  92.7120781  71.4011002
 108.8795662  92.9315281  72.0383120 108.5860634  92.0165443  70.8688498
  27.0996189  44.4066668  43.8700199  27.8840351  43.8724709  43.7452650
  26.4084196  43.9276409  43.4128475 108.2977200  37.1393657  51.4866877
 108.7044621  36.7543960  52.2629547 108.0450439  38.0209398  51.7609406
  51.6710377  77.1430111  65.5128193  51.5091467  78.0575180  65.7445574
  52.1122074  76.7762566  66.2790346  28.4366679  87.3539639   3.1392288
  27.7529573  87.2198009   2.4828947  27.9659629  87.6499557   3.9183694
  86.1954498  92.9630375   9.2365044  86.9991398  92.6241779   8.8421857
  86.3935661  93.0219173  10.1711237 110.9320354  74.1035032  72.3717356
 110.3345108  73.3562851  72.3424530 110.9369087  74.3704033  73.2909584
  27.0685577  55.0187016  50.5663681  27.8980184  55.4510117  50.3630543
  27.2262311  54.5787191  51.4017057  36.3555813  48.5772419  53.3444405
  36.8850470  47.8397083  53.0412245  35.8024931  48.7990046  52.5953436
 111.3100529  59.7172832  56.9322729 111.6079617  59.8792839  57.8273916
 111.9932938  59.1678190  56.5482044   8.5757834  38.9182520  50.4881668
   9.4482505  38.6427188  50.2068949   8.0139357  38.7414813  49.7336388
   8.4253138  33.2596564  65.6380367   7.8715968  33.9954948  65.8991289
   7.9047418  32.4832606  65.8440590 112.6999283  81.3580799  77.7405596
 112.9404068  80.7793331  78.4640598 113.5069942  81.8284512  77.5316906
  13.0721593  34.8994780  48.0672312  13.6841023  35.1184940  47.3645306
  13.6017728  34.9293399  48.8640070   6.0259813  80.8347416  59.9767160
   6.0721570  80.1906872  59.2701101   6.0015845  81.6803455  59.5288372
  25.8806801  69.3978262  31.6772985  26.5688276  69.9855614  31.3654494
  25.6224108  69.7598839  32.5249100  74.4230175   0.4162632  61.8933058
  74.8423624   1.1711696  61.4803886  74.5221424   0.5713081  62.8326511
 108.1050110  40.0709057  67.1652651 107.6854706  39.2529607  67.4320650
 108.5111713  39.8680019  66.3225937  36.4136600  55.7397175  52.9391575
  37.3281717  55.5400133  52.7391052  36.4195251  56.6635036  53.1897879
  37.4036455  88.1224346  12.6351845  37.0083952  88.6776543  13.3073032
  37.8318071  88.7364674  12.0386362 113.9590263  19.8208416  52.8742313
 113.0729675  20.1696491  52.9715395 114.3964767  20.0457001  53.6953974
  14.6589327  30.9000087  68.0240154  14.1836512  30.2409220  68.5299253
  15.1090920  30.4003882  67.3428631  88.9316463   9.4191068  17.8524303
  89.3790436  10.0419199  17.2795665  89.1403008   8.5611516  17.4828267
   9.4748294  85.1188755  38.8608003  10.2345538  84.7140884  39.2793632
   9.3128526  84.5803165  38.0862355  34.7879100  52.6702309  62.1129370
  35.6984210  52.3779869  62.0705891  34.7610831  53.2622194  62.8646421
  14.3918872  75.2033949  79.6684647  14.6435273  74.3642855  80.0542068
  14.3346596  75.0276947  78.7292671  35.1061320  52.3872805  58.7107801
  34.8674488  53.0244875  58.0375576  34.3062544  52.2691584  59.2231035
  30.8421898  60.3787470  63.8424683  30.2712655  59.6324253  64.0248966
  31.7182612  59.9991322  63.7744617  72.1318340  87.1286201  10.4515314
  72.8570080  86.8614388   9.8867559  72.2588587  86.6279697  11.2574112
  51.7988825  52.2238874  16.9196284  51.2477207  51.8856764  17.6253653
  52.2339821  51.4492941  16.5633655  74.9893808   4.2067370   9.4898260
  75.3278685   3.8858262  10.3256929  75.5922699   3.8533244   8.8357192
  95.8603287  31.7657065  52.5065517  96.2810326  30.9253454  52.3247957
  95.1537323  31.5529251  53.1162071  87.1820831  21.3471937   3.3868539
  87.2725868  22.1174192   2.8257883  86.2535191  21.3272882   3.6183688
 106.1189079  63.0562115  47.7360010 106.1425781  63.5669088  46.9267702
 105.4104614  62.4267721  47.6013613  30.4647875  35.1858068  68.5091972
  31.0005164  34.7431612  69.1674423  30.9051561  35.0025868  67.6792955
 113.1433964  22.9283547  80.6415176 112.7259254  22.3265529  80.0252533
 112.4380112  23.5114598  80.9219646  97.9569626  56.3330698  67.6531982
  97.5501633  55.5382061  67.3083258  97.6105022  57.0368242  67.1046305
  31.4757895  88.9033985  61.9740677  31.2159157  89.3268776  62.7922153
  32.1305227  89.4913960  61.5974712  23.1187057  60.7882023  67.0665646
  22.4466085  60.7367039  67.7461720  23.8331103  60.2419233  67.3943377
  93.2336903  75.4532766  45.5901527  92.5018215  75.6468582  45.0043869
  93.1237507  76.0624790  46.3202286  29.9936342  53.8570642  77.9767227
  29.2933941  53.7243032  77.3377609  30.3044367  52.9744530  78.1783056
  79.6191120  14.5015502  50.9112024  79.8016739  13.6909306  51.3863850
  79.7153854  15.1911068  51.5680742  57.9398870  40.4815960  74.9375296
  57.5664663  41.2463188  74.4993687  58.8497400  40.7244062  75.1091194
  42.4954081  57.9803133  53.0004930  43.1559801  57.4984074  53.4981298
  41.8973732  58.3224583  53.6649656  20.5934787  64.2916393  74.5944214
  19.6738195  64.2680120  74.8588085  21.0786986  64.1069889  75.3985977
  74.0524292  38.4557223  77.7379417  74.5423841  37.9431701  77.0949316
  73.2842827  38.7683535  77.2599840 107.1357250  39.9990058  77.3580456
 107.5626373  39.9943948  78.2147551 106.7915058  39.1115546  77.2571898
  31.0191870  81.8065071  77.1307850  31.3601232  80.9854603  77.4855757
  31.2629366  81.7870522  76.2053442  23.2497239  29.9182677  69.2251778
  23.4644723  30.8510661  69.2262363  23.9768124  29.5056295  68.7590218
  37.3674989  51.2888908   4.5048824  36.8787694  50.6099272   4.0397143
  38.2748818  51.1638260   4.2269471  97.8297329  16.3034689   4.9305153
  96.9312382  16.1182821   5.2037275  98.2484531  15.4438758   4.8857874
  22.4587655  34.5602036  75.2395535  23.0788684  34.1874599  75.8662653
  21.6929960  33.9882278  75.2912426   3.6848027  67.6326323  54.4285250
   4.0855315  67.0902014  55.1078033   4.4260329  68.0229568  53.9654303
 113.2531357  14.8241091  80.3337955 113.3940506  15.7525837  80.5190182
 112.7161980  14.8167551  79.5414066  16.6508985  12.6406872  60.8737707
  16.9505644  13.5113764  61.1351728  17.2722626  12.3659587  60.1994848
  19.7991359  78.2335758  54.8307943  19.9610388  78.9705801  55.4197311
  20.5825377  78.1884384  54.2826366  13.7561190  82.9007912  78.6003494
  13.3247054  82.4847126  79.3466711  14.1880822  83.6700249  78.9717054
 105.7328415  66.2954664  60.5019474 105.0370216  65.7072067  60.7952452
 106.4749813  66.0909986  61.0708475   8.0373507  65.6896944  93.1837678
   8.9678412  65.5475266  93.0099810   7.7473861  66.2674493  92.4778251
  20.7219005  28.1725478  48.6392927  21.6235566  28.2437754  48.3259630
  20.2544713  28.8736916  48.1852674  15.0244641  40.8170557  56.1212349
  15.7026279  40.1859236  55.8804083  14.6651483  41.1133194  55.2849627
  83.5258389 104.1322517  35.9045768  84.0205860 103.3872318  36.2457585
  83.5640049 104.7853184  36.6033411 103.5742855  71.6025448  84.5023155
 103.2667351  71.2659836  83.6606693 104.5228291  71.4763212  84.4785786
  42.4662018  28.6999464  61.8990564  42.3393488  27.7633429  61.7476845
  43.3101940  28.7580419  62.3468685  57.7444077  28.9944220  71.9242287
  56.8725443  28.7486458  72.2335482  57.8650665  28.4881663  71.1208773
   4.5653582  36.3221288  66.2012005   4.7872227  35.9266734  67.0441818
   3.8222423  35.8088827  65.8840418  20.4937601  43.4222126  65.6156588
  20.8678508  42.9762411  66.3755226  19.8678815  42.7948284  65.2538586
  10.4003108  43.5505009  52.2801256   9.7264236  44.1774035  52.0172596
   9.9444485  42.7095604  52.3153973  37.5940871  72.5158072  20.0290799
  36.8790174  72.3659945  20.6475163  38.2914162  72.9028130  20.5584097
  49.2387104  18.0754995  71.6342592  49.0040827  17.7421284  70.7682085
  49.6452856  17.3298895  72.0758390  32.9572225  72.1588898  20.4218554
  33.1438446  72.7076530  19.6601081  32.9099011  71.2697029  20.0706553
  82.9073620   1.0430349  12.9500639  82.2972679   1.0694068  12.2129583
  83.3211899   1.9061521  12.9494464  43.6268902  65.5487347   4.6889478
  44.0174961  66.4074230   4.5267314  43.8131046  65.3712082   5.6109238
  16.9585752  30.0116658  79.7570419  16.5597022  29.7911096  78.9153242
  17.7742672  30.4562688  79.5263720  37.9951119  33.2514572  86.5640450
  37.9811954  32.5915313  85.8708382  37.6439691  34.0402699  86.1508751
  35.3226686  30.9369636  56.3713074  34.4640374  31.2909770  56.1396646
  35.9323788  31.3840652  55.7842922  19.7193623  39.6422768  75.9042549
  20.1751542  39.6225572  76.7457390  18.9710653  40.2209330  76.0506821
  23.4835196  63.1898308  79.5905018  22.6131558  62.9439878  79.2770386
  23.3909535  63.2368135  80.5420589  45.6442833  86.8024921  74.8688316
  44.8902893  86.8176842  74.2793417  45.3300285  87.2206402  75.6704712
   4.7955462  52.8569698  68.9816999   4.3659514  52.5121307  69.7644949
   4.0753281  53.0825663  68.3929539  39.2971134  64.8047686  64.2428637
  38.3702040  64.5980215  64.3625593  39.6893311  63.9835310  63.9462757
 111.1302567  69.6667242  86.6425133 111.4494896  70.5411434  86.4195442
 111.1941051  69.6245289  87.5966454  32.1078920  41.8274498  83.0592346
  32.4975562  42.0435476  83.9064026  32.2590804  40.8876181  82.9588127
  22.2799802  74.8253107  44.8329830  23.0350828  74.9803162  44.2655087
  21.5264702  74.8594999  44.2436743  25.4390717  64.8795843  67.8236580
  25.7577205  64.2470884  68.4675837  26.2286234  65.1851177  67.3770189
  36.7948890  87.5506783  65.9557104  37.6335692  87.5849152  66.4157867
  37.0310688  87.5312614  65.0283098  23.5622621  58.5657454  25.7738447
  23.1937194  57.7193880  26.0270166  24.0793037  58.3772087  24.9906754
  39.0562272  63.8438988  69.1680670  39.0925097  63.5666132  70.0835037
  39.4004965  63.0973148  68.6778402  18.7544549  93.8015747  55.1125574
  18.7164652  94.0359879  54.1852856  17.8674519  93.5091686  55.3222179
  10.7754040  35.9703088  41.3950539   9.8623389  36.2497473  41.4618158
  11.1473405  36.5283513  40.7120562  23.3034205  96.5082741  82.3771572
  23.6275458  97.4082947  82.4106884  22.3553014  96.5985489  82.2815037
  37.2809982  21.6818261  60.5235767  38.0035114  21.2193704  60.9482431
  36.6421843  21.8214369  61.2226200  28.6404824  54.4626379  56.6508389
  29.0934944  53.9796305  57.3420143  27.8180242  53.9888382  56.5271044
  13.7741816  74.8215723  69.4658756  13.0842328  74.7239256  70.1221275
  14.5794284  74.5899677  69.9286556   5.6768537  37.8848338  87.7226639
   6.1018652  37.4104381  88.4371853   6.1106378  38.7380099  87.7102280
  47.7910805  55.1290464  61.7056179  47.5156498  54.5808363  62.4403524
  47.0635700  55.0814867  61.0853767  49.1573048  85.6827927  44.1901112
  49.4961882  85.2995014  44.9991131  49.0012980  86.6018391  44.4075012
  25.8498788  43.6548281  73.3191347  26.2085867  42.7932930  73.1062555
  25.2678537  43.4950304  74.0620661  59.2607355 101.3448048   3.5784537
  59.2540741 100.7613468   2.8196579  59.9713898 101.9608974   3.4006235
  83.2972240  28.5080814  13.5924876  83.2636738  28.5717440  14.5469785
  84.2298985  28.5535002  13.3820486  21.0365677  58.0346441  90.3110027
  20.9446621  57.0818663  90.3104210  21.4279985  58.2369947  91.1607456
  46.9324398  57.1817875  87.7641773  47.1477795  56.5414762  88.4423065
  46.5093184  56.6685581  87.0758533  66.9792032 101.8735981  15.1963151
  66.5324736 101.2492180  14.6246362  66.3310242 102.5600243  15.3541577
  41.2560558  98.3002758  41.3305855  40.7872725  97.9887772  40.5563450
  40.5905390  98.7553501  41.8465614  88.9137650  22.9326081  18.4326231
  88.1629753  23.0035639  19.0221190  89.6063232  23.4316635  18.8656914
  88.6072445 100.7219505  16.9508767  88.3482170 100.3649330  16.1013627
  89.4621754 100.3284454  17.1254456  28.6689186  62.7992773  79.0379953
  27.9643059  63.3099604  79.4366884  28.2833457  61.9362879  78.8869429
   9.8576677  35.3862834  92.8766727  10.3476834  35.7662177  92.1474457
   9.1977978  34.8326421  92.4591923  33.6346817  65.3793001  48.9945221
  34.1618752  66.1765385  48.9423990  33.7466145  65.0766325  49.8956871
  31.8322945  56.3923550  52.1913290  32.2687554  55.7464743  52.7468252
  32.1824265  57.2343063  52.4824572  64.8666573  99.9791336  13.8087547
  64.4494677  99.4490337  13.1296504  64.5165396  99.6346474  14.6303284
  18.3750331  91.2090015  76.7434263  19.1134691  90.6054115  76.8248224
  18.0273211  91.2832832  77.6321411  11.3534510  62.9011631  49.2329597
  11.3145006  62.7972174  50.1837015  11.6448295  62.0483112  48.9105129
  46.0676241  89.2661762  60.8777094  46.3599300  89.8589039  60.1852751
  45.9946060  88.4138012  60.4483414  34.6674657  49.8645735  71.3459969
  35.0990391  50.6835556  71.1025953  35.0990605  49.1982698  70.8112097
  22.2126079 105.3008175  86.1286831  21.5428352 105.1631832  86.7985344
  21.8415093 105.9692287  85.5527115   5.8430463  57.8106117  22.7882147
   4.9637645  57.8752947  22.4155068   5.9134531  56.9015169  23.0794573
  40.4135942  58.5385799  86.4653111  40.4599905  57.7520037  87.0087910
  39.4773102  58.7228060  86.3900280  96.6367722  17.0021856  18.6816013
  96.5808010  17.0955217  17.7306080  97.4976063  16.6122448  18.8337374
  35.7828164  47.8358173  66.2806368  36.3540077  47.1400547  66.6060448
  34.8963952  47.5173283  66.4510822  50.7128716  93.7470245   1.6499014
  50.9589529  94.5367432   2.1315806  51.1596394  93.8312721   0.8075633
 100.8613396  18.9400089   7.2698718 100.7656288  19.4494140   8.0745935
 101.0957241  19.5862401   6.6037786 112.4269581  62.2332907  67.5041008
 112.3051548  61.8623877  66.6301298 113.1511593  61.7316246  67.8783894
  39.6615696  89.6307468  40.2914906  39.6267319  90.5598736  40.0640392
  39.1687441  89.5657730  41.1094999  22.9050899  60.6056833  86.3315296
  22.2874713  60.2558136  86.9736958  22.4123406  60.6250095  85.5111313
 107.4309349  80.9059429  77.3993206 108.3735466  81.0434818  77.3055029
 107.2867012  80.0132942  77.0852995  91.5420914  72.0088100  51.5149403
  92.0108700  72.0474434  52.3485947  91.7899513  71.1638260  51.1397123
   5.0364846  44.9570942  73.2773256   5.8839792  45.4006100  73.2415962
   5.2517223  44.0254116  73.2340908  25.2195168  75.0887442  61.3577795
  25.6471276  75.3982592  60.5592918  24.6261024  74.3992949  61.0598612
  30.7906842   4.2170575  69.6702814  31.3892078   4.7040826  70.2366781
  31.3595247   3.7991500  69.0237474  23.3289361  75.3812218  74.7678471
  22.8500867  75.8874083  74.1115665  24.0155721  75.9740114  75.0733995
 108.3109856  56.7618132  14.9295843 107.8815269  57.5805187  15.1776183
 108.1520557  56.1745405  15.6685555  22.0955157  70.0351143  76.3503885
  21.1875415  70.3283215  76.4268494  22.3634028  70.3113317  75.4739332
  12.2830856  96.2379169  89.5730877  12.8886306  95.5503273  89.8501492
  11.6632009  95.7926559  88.9954090  16.3724720  42.3711586  74.4598532
  15.5680501  42.8593588  74.2843580  16.1410832  41.4584255  74.2877674
  34.9461150  54.3373156  69.1418171  35.7662559  54.5428658  68.6930990
  34.2833257  54.8454285  68.6740923  28.7084913  90.4883575  56.9386768
  29.4163513  90.6577778  56.3170195  29.0855193  90.6965446  57.7935123
  40.4545259  51.1835527  65.3942060  40.0416660  51.4168406  66.2256861
  39.9372053  50.4471064  65.0682354  23.3708096  75.8062840  40.4835796
  23.1049728  76.7239189  40.4243565  22.7668309  75.3439713  39.9024510
  31.0623384  94.8519611  26.0162139  31.0403562  95.2556705  26.8838358
  31.1272836  93.9130116  26.1905169  46.8176985  68.6858273  68.9047003
  47.0189762  67.8458881  69.3172789  46.8889475  68.5145855  67.9656410
  41.2991333  49.8174620  57.4032307  42.1471071  49.7275162  56.9683981
  40.6633472  49.8310423  56.6878128 107.9647732  34.8351192  13.5136008
 108.4682560  34.3698883  14.1816545 107.5879192  35.5838203  13.9758348
   9.6144933   0.7214382   0.6480224  10.4504681   0.8326289   0.1952360
   9.6933353   1.2634587   1.4330252  35.5595684  58.6366796  85.0979137
  35.3714848  59.4602585  85.5480003  34.8580360  58.5508776  84.4523811
  24.9697566  63.1946182  34.4250059  24.4237709  62.8662920  33.7106299
  25.8551311  63.2112837  34.0615964  19.0918589  63.9797831  31.1352110
  18.4049833  64.5558929  30.7997537  18.7614465  63.0955315  30.9765911
  40.4989243  20.7210398  77.1020031  39.7072792  21.2335467  76.9381046
  41.2029028  21.2343240  76.7055368  62.8641844  92.5377846  13.9611948
  62.9276085  93.4872437  13.8575125  63.1003189  92.3803711  14.8753572
  35.6625986  29.7774529  52.9876423  35.1938033  28.9724588  53.2077408
  36.2579441  29.9169064  53.7240839  31.7362285  22.2882819  75.8876944
  32.6426768  22.4386930  76.1559486  31.3956213  21.6676831  76.5319586
  17.2217011  73.3433151  76.6844463  16.3381433  73.6479902  76.8911552
  17.4367416  73.7753057  75.8577824 103.0273533  45.2793598   7.1192867
 103.2300568  46.0492420   7.6507205 103.4834957  45.4326487   6.2918365
  10.7297552  67.0695686  77.1364117  10.1096201  66.5376616  76.6376686
  11.3301861  67.4183273  76.4775610  29.2532730  42.5288105  85.0985050
  28.7284803  41.7483187  85.2764320  30.1502991  42.2028065  85.0257301
  21.0829520  81.8692112  50.5539799  21.8298340  81.3174438  50.3216934
  21.4653516  82.5942421  51.0482740  33.1021142  38.1594396  68.0102921
  32.8884077  38.8421774  67.3743439  32.9241920  37.3392344  67.5500345
  31.9078994  85.6316757  88.3715725  31.1251760  86.1824608  88.3572292
  31.7874384  85.0252151  87.6408672  44.6073723  39.7390652  77.8179693
  45.2031422  40.2639723  77.2834015  44.8906469  39.8977995  78.7184095
   9.7452956  83.5551262  91.3664818   9.4694936  83.4494591  90.4559898
   8.9275122  83.6476135  91.8552685  16.1093020  77.3869038  76.5626860
  15.1866472  77.3351860  76.3131571  16.5397596  77.7866650  75.8069563
  28.1659484  50.7269907  56.3009501  28.6284328  50.2879667  57.0148087
  27.2879672  50.3459358  56.3142538   7.3666209  86.2027073  80.3269291
   7.8945762  85.4389191  80.5595779   7.7171415  86.9100475  80.8682632
  46.8507862  58.3068562  90.4587841  47.0843840  57.8649902  89.6424389
  47.6487017  58.7672806  90.7187271  90.0942326  40.3208971  11.4474022
  90.9456062  40.3411770  11.8844175  89.8306274  41.2395144  11.3937151
  20.4604506  21.4688897  80.9076405  20.5924988  20.7382989  81.5118217
  19.7815204  21.1627293  80.3063488  53.3811569  43.0516911  85.5982494
  53.6995506  42.1692467  85.4081249  53.5146379  43.5352945  84.7830582
  13.1953382  22.4623775  70.5654716  12.4003267  22.4163532  71.0965776
  12.8896856  22.3445988  69.6660614   3.8778815  42.7106571  28.4390616
   3.4782481  42.5171614  29.2870498   4.6338537  43.2586002  28.6500025
  21.1412549  80.5669022  76.0555601  21.1458182  81.1610889  76.8059969
  21.8789673  79.9774504  76.2122869   9.8277509  20.2635217  64.5127439
  10.5686069  20.0784993  65.0899220  10.1625574  20.0954485  63.6319017
  53.6237240  20.8218455  11.1269307  54.4366455  20.3309846  11.2471163
  53.3273888  20.5830932  10.2486277  39.8277521  38.9194036  59.1412687
  40.5849648  39.3075728  58.7028742  39.6627784  39.4944739  59.8884678
  41.8711519  48.1687737  54.8234415  41.0282373  47.8885889  55.1801252
  41.6439009  48.6933851  54.0557384   1.5486200  19.6912420   6.3208878
   1.7080684  20.6350398   6.3136864   2.2150576  19.3402457   6.9115609
  34.9530220  57.0698357  91.5333652  34.5478821  56.2629509  91.8512154
  35.1228476  56.9034433  90.6061554  39.7680044  61.1909914  66.0833788
  40.4920816  61.4410353  65.5094290  40.1624727  61.1285877  66.9532824
  39.9943757  37.5527000  85.5706310  39.0608501  37.3417163  85.5549145
  40.1749563  37.9052162  84.6992207   1.1934061  31.5341496  54.7398186
   1.7166054  31.3883233  55.5280018   1.6513693  32.2341013  54.2744493
  69.2150116  85.4442692  87.6006222  68.8667297  85.8266735  88.4060287
  69.0057182  86.0851765  86.9211578  30.4978490  76.6491842  35.9019136
  29.8782754  76.5957689  35.1742435  29.9961925  77.0440245  36.6151261
  85.4050159  98.7016392  43.1775427  85.5015755  98.6151505  44.1259241
  84.4592667  98.7432575  43.0358934 103.4734631  85.1087379  65.5085373
 104.3573666  84.9675369  65.1694155 102.8968430  84.8444939  64.7916651
  13.4324300  72.4952173  67.7941513  13.3561981  73.4105396  68.0636120
  12.7665961  72.3893261  67.1146774  57.5612307  53.7218142  26.8206596
  58.3443260  53.3374834  27.2147155  57.6218319  54.6543360  27.0279264
  10.9861076  48.5831118  67.4992371  10.7644975  48.8450384  66.6056395
  11.5898454  49.2602491  67.8045511  31.8495774  40.5121660  76.4590788
  31.5392065  40.5486870  77.3638248  32.5255919  41.1880779  76.4103031
  46.8165970 105.5148220  12.7911520  47.1375942 106.3785458  12.5319707
  47.6067734 105.0223827  13.0132997 108.0864525  39.3396163  14.2257214
 108.0825806  39.7954679  13.3840477 107.5863075  38.5390878  14.0668380
 112.4582386  68.5366392  61.7916822 111.6414452  68.1173658  62.0624208
 112.4506092  68.4812593  60.8361149  31.5512800  89.6200562  89.5160675
  32.3301744  89.0645313  89.4852161  31.2331557  89.5367813  90.4150105
  31.1057281  52.8990650  90.8610153  30.6696033  53.6681271  90.4941654
  31.8336296  53.2563734  91.3696671   8.6805558  49.1817856  93.0674648
   8.2571852  49.4868612  92.2650242   8.2488436  48.3506060  93.2649422
  41.0592556  87.0669174  26.8226218  41.4725161  86.5508080  26.1304688
  41.1660957  87.9752827  26.5403080  23.1364298  87.3516655  77.4982262
  22.5613856  87.9981899  77.0888805  23.8157296  87.8724957  77.9266214
  30.4859829  90.7565117  63.7522507  31.1202240  91.0346794  64.4130039
  29.7433400  90.4256058  64.2574310  28.1565213  94.4621658  72.7488899
  27.3790598  94.2192459  72.2461224  28.7611270  93.7307835  72.6233292
  34.8531771  37.7246404  25.4646683  35.2181458  36.9026709  25.7923818
  35.3254271  37.8877258  24.6482015   7.7975714  11.4472592   6.6314298
   8.6883551  11.2200248   6.3647830   7.8869236  12.2945988   7.0676219
  17.3483539  89.0093708  74.9463511  17.4794912  88.1909943  75.4252005
  17.4595034  89.6935654  75.6064701  26.9737339  81.1046219  32.2242641
  27.8249907  80.6691933  32.1795893  26.3692451  80.4199696  32.5107598
  39.8330140  80.8139896  64.6891689  39.9579215  79.9442959  65.0689888
  39.6998715  81.3879395  65.4435444  11.3112056  59.3514061  87.2212982
  10.6461763  59.1464376  87.8785324  12.1441615  59.2094612  87.6710415
  84.0517807  25.2156544  15.5976331  83.7164116  24.8957539  14.7601235
  83.4873199  25.9578347  15.8139193 110.6254959  66.5817833  21.0893369
 110.2749157  67.4038744  21.4320993 109.9185753  65.9488630  21.2154269
  21.2249923  39.5966339  44.9926233  21.3205433  38.7493157  45.4275417
  20.8977175  39.3819380  44.1191101  41.2572384  92.6473427  43.9422655
  41.7601871  92.9376125  43.1813335  40.4828978  93.2100201  43.9463806
  34.7360349  93.3064365  39.0321350  35.4202461  93.6234379  38.4425569
  35.0749898  92.4767590  39.3682575  29.6198511  75.7616282  39.2012072
  29.4837475  76.5143728  38.6258054  29.1009474  75.9592390  39.9809003
  24.4997740  35.9683394  51.8437004  23.5614347  35.9934688  51.6562986
  24.6161008  36.5842056  52.5671721  21.1706972  93.8044453  90.5952168
  20.5150890  93.2518768  90.1696873  21.8951368  93.2098770  90.7899189
  80.1345158  16.5851963  11.3130522  79.7930002  16.2457287  12.1403134
  80.5920982  15.8420527  10.9198737  32.7079773  40.5263948  57.0295954
  33.4939337  39.9967360  57.1636200  33.0277300  41.3298750  56.6192150
  40.9297514  41.0460234  40.0852489  41.5858173  40.7562876  39.4513178
  41.0308123  40.4472303  40.8251572  14.9417853  60.6311560  47.5184250
  14.7061038  61.2857866  46.8610430  15.7763016  60.2750921  47.2134113
  31.5726447  69.1771030  75.5046368  32.3013473  68.5749817  75.3540611
  31.0501599  68.7549925  76.1865902   6.4331269  39.2957449  85.1824093
   5.5059576  39.2206645  85.4081249   6.8788940  39.3788505  86.0253811
  50.4958773  83.3253193  65.3010845  50.1599407  84.1670227  64.9929810
  50.8101606  82.8885937  64.5094252  25.5308104  84.0049458  79.8322916
  25.4889297  84.8707676  80.2382851  25.2867794  84.1565132  78.9192152
 106.9643879  91.8306351  77.5666618 106.1131287  92.2360039  77.7318001
 107.0152950  91.1142159  78.1994247  45.8632231  57.7757883  61.5034676
  45.9793234  57.0538998  60.8857107  45.3300285  58.4136295  61.0290241
  22.0570970  51.6661310  58.1912041  22.3252845  50.8013725  58.5018587
  22.0041513  51.5731144  57.2400045  56.7754221  96.4010143  15.7950389
  57.5858927  96.2314224  16.2752581  56.2713337  95.5920315  15.8826888
  18.3903694  83.1055355  64.9554920  17.6178277  83.4549141  64.5112610
  19.1032565  83.2287312  64.3287182  17.3894048  29.6348190  24.2924953
  16.7058933  29.9919844  23.7255049  17.4743962  30.2758861  24.9982142
  31.6993451  49.7957659  86.6797066  30.8231378  49.6330738  86.3303852
  32.2840047  49.3161583  86.0928631  38.6895347  53.1942129  60.8446550
  38.6268353  54.0294933  61.3079071  38.2376695  52.5705671  61.4130926
  37.3800898  45.6928730  55.9962511  36.7788339  46.4357758  56.0493755
  36.9599581  45.0879669  55.3848505  17.6049721  42.7365351  54.9740076
  18.2828188  43.2833338  54.5768070  16.8637431  43.3286476  55.1013613
   6.7342061  74.8570681  64.1312504   6.7151445  74.1183424  63.5228491
   7.6328427  74.8730326  64.4605350  27.7271557  46.6159725  85.3447819
  28.3475351  46.5226650  84.6218300  28.2752490  46.6397667  86.1291599
  82.2008991  36.6915584  75.6125641  81.9857979  35.9777880  75.0121498
  83.1555271  36.7531967  75.5791283  27.5546103  55.5778766  92.2335607
  28.0919486  56.1919109  91.7331043  27.4406653  55.9987322  93.0856933
  46.6583014  63.0766439  47.7668571  47.4976158  62.6932287  47.5123549
  46.4698887  62.6934862  48.6235476  37.6574850  63.6397219  76.3614559
  38.5530567  63.9676714  76.4429092  37.3362637  63.5941887  77.2620010
  44.6111679  70.2207947  49.0077305  44.6370935  70.3308582  48.0572319
  45.2739096  70.8277464  49.3372917  44.2039108  69.5405960  58.3614635
  43.3283281  69.8784924  58.5496569  44.2097664  68.6636353  58.7450457
  31.3043642  51.3918209  49.4824696  31.1812329  50.4883051  49.7735548
  31.9950771  51.3386250  48.8219261 112.0659161   0.1049552   2.7619261
 112.9929066  -0.0410960   2.9505849 112.0217705   0.1615769   1.8074220
  10.2286136  95.2044010  88.2112026  10.4014921  94.9162388  87.3149300
  10.0155985  94.4001389  88.6844921  41.5445805  32.3746610  84.9664307
  41.2021446  31.4823008  85.0180435  41.7004967  32.6244187  85.8772278
  38.2177401  46.5064049  85.8348560  37.8332663  47.2754288  85.4141235
  38.0381083  46.6285038  86.7670822  52.3952389  52.9714394  91.5388966
  53.1805897  52.4854183  91.7903709  52.6953983  53.8744020  91.4349842
   6.9734651   0.1333114   7.4663764   6.2991577   0.8123533   7.4874365
   6.8449503  -0.3058571   6.6256344   0.5801029  11.7301691  23.0470014
  -0.1031843  12.1558440  23.5648346   0.5989211  10.8292079  23.3697200
  19.2928553  57.9173040  80.8365345  19.3268013  57.7564240  79.8935652
  18.4185648  58.2768202  80.9868526  35.1114297  47.2567177  56.0064268
  35.1484418  47.2847700  55.0503540  34.9349165  48.1610107  56.2659168
  20.1972079  48.1453896  61.6619158  19.5928574  48.1674147  62.4038792
  19.6299601  48.1004429  60.8922148  23.0940819  78.8368654  76.5644646
  23.9036226  79.0085506  76.0834265  23.3583498  78.2572842  77.2789478
  90.0206947   5.2038068  10.8227694  89.9720478   4.8861706  11.7244196
  89.8224831   6.1380589  10.8869278   9.6824050  83.3218384  59.3683243
   9.3506259  82.8215504  60.1138830  10.5917180  83.0378437  59.2749023
  41.7492390  90.6047058   6.6012084  42.4665213  90.2817249   7.1465695
  41.2797546  91.2210274   7.1633142  24.2589188  50.8022594  45.1495695
  23.7713552  50.1411915  44.6581411  24.8474431  50.2976322  45.7110167
  32.8140235  92.5090885  80.3824234  32.3806071  91.9673252  79.7229719
  33.7074327  92.6152706  80.0556564 104.6114540  13.7949872  75.3536606
 104.3100357  14.3302739  74.6195984 103.9867210  13.0709219  75.3945065
  20.2995777  80.5512905  71.8395042  19.3996894  80.7346630  72.1093369
  20.2268982  79.7884941  71.2658405  16.3855577  84.9687767  90.7823944
  17.3302448  84.9706745  90.9366512  16.2133157  84.1265678  90.3613663
  21.3042927  74.8651457  32.2184324  22.1973848  74.5216465  32.2434521
  21.0647607  74.9768019  33.1384254   6.5880573  63.6840105  75.6874323
   7.3646879  63.2877731  75.2923727   5.8519948  63.2508421  75.2552176
  14.9197805  26.4227939  89.5955276  14.9750602  25.7472348  90.2713966
  14.9892402  27.2480392  90.0755119  26.4506435  44.3554783  85.6268311
  25.7024145  44.5531988  85.0635433  27.1211386  44.9862814  85.3646278
   5.3423184  55.2710581  22.9441047   4.4475633  55.3593588  23.2725072
   5.6710112  54.4721556  23.3563542 110.4288387  88.9831066  62.3092031
 111.2500381  88.7249470  61.8906069 110.6945610  89.5742130  63.0136299
  41.7537928  57.1135330  61.2207747  41.9956017  57.6453257  60.4625177
  40.9960032  56.6079473  60.9268808  27.9645252  53.1597996  76.2871647
  27.2230172  53.5506773  75.8249855  28.1477642  52.3525572  75.8065224
  43.4081459  73.7137556  72.2538471  43.4075022  73.9931679  73.1693602
  43.1624269  72.7891684  72.2854376  53.6526975   0.0967667  60.0899601
  53.8366029   0.9059498  60.5670738  54.3189463  -0.5185249  60.3961611
  26.8843603  84.6585560  67.9854918  26.3615155  83.9763451  68.4067345
  26.5587425  85.4763508  68.3615351  28.9100284  32.3754518   0.1926050
  28.2274407  31.7081850   0.1214990  29.7143954  31.8798368   0.3462133
  13.0215085  72.2936630  88.5754776  12.6149940  71.5594864  88.1150913
  13.8956368  72.3626566  88.1915951  53.9959717  87.1516228  65.7293892
  54.5748329  87.8235340  66.0895109  54.3328285  86.3294125  66.0853815
  70.6602716  94.2710686  65.8843660  70.8900452  93.9117146  65.0274515
  69.7036934  94.3054485  65.8809900  46.0836029  53.6019230  63.8003445
  45.9222221  54.5447302  63.8364077  46.4656782  53.3915615  64.6524000
  51.5002489  73.5297108  57.9208851  51.8851852  72.8264236  57.3979664
  52.2138977  73.8264179  58.4855986  52.7406979  85.1412296  74.6858025
  51.8468189  84.8016834  74.7296286  52.7260017  85.9258556  75.2338743
  58.7532330  83.2595348  24.6521068  58.2721996  83.3080292  25.4782367
  58.3698225  83.9496422  24.1108346  34.7935081 105.3911591  74.1795397
  34.0610027 105.3965378  73.5633945  34.8672557 104.4777203  74.4559860
  19.5977628  80.7164669  90.0866985  20.0333834  80.9979534  90.8912086
  18.6941290  80.5442142  90.3512859  43.7913561  52.1932888  64.4432878
  44.7476244  52.2350788  64.4488335  43.5372639  52.4023390  65.3421593
  53.1555367  95.6516171  76.4879084  53.8259268  95.5789852  77.1672726
  52.4592638  96.1688137  76.8928099  42.8688049  90.3820896  23.5218120
  43.4141064  89.6560192  23.2189989  42.4198198  90.6891346  22.7341771
  16.1484396  98.1220531  54.9434090  15.8573747  97.3756027  54.4196463
  15.4811609  98.7924290  54.7965431  21.1734772  55.3442430  71.2600470
  21.5482593  55.2756405  70.3819418  20.9171963  56.2630272  71.3399696
 103.7669277   8.1986719  49.3583536 103.2827663   7.3979700  49.5600986
 103.1396675   8.9041638  49.5166588  40.9863186  90.9239101  33.6282516
  40.0542021  90.8373547  33.4285069  41.4260912  90.7634354  32.7933383
  26.5244889  65.9773159  73.8325977  26.7035151  65.9650564  72.8923655
  25.5876040  66.1630821  73.8956213  30.8039880  88.2275391  59.4858694
  30.9783149  88.2556343  60.4266453  31.1882758  89.0359974  59.1468287
  29.3106365  89.0857887  67.9725027  28.9169908  89.8463917  67.5450087
  28.5649514  88.5467625  68.2363892  89.2768669   4.7512817  70.7138443
  88.9936543   5.0647652  71.5727711  89.1873932   5.5119944  70.1397848
  44.4278240  85.0185966  70.3485966  44.9114513  84.2022514  70.4747963
  43.8655758  85.0856400  71.1203575  95.2570438  80.1311493  41.9143629
  94.5962429  80.7200909  41.5500450  95.8537388  79.9605703  41.1856079
  43.4834862  69.9730062  55.2491760  44.2187977  70.4869223  54.9153471
  43.7293863  69.0639019  55.0780296  77.0354891  85.0719070  55.8278942
  77.0435190  85.5789661  56.6397142  77.7979374  84.4973183  55.8968353
  98.8007355  28.1521249  69.1004610  97.8896809  28.4015203  69.2554617
  98.7596226  27.5386214  68.3668709  20.0743866  64.0594053  46.9509554
  19.2251813  63.6488390  46.7881155  19.8691046  64.8358583  47.4717331
  31.5144753  74.4379807  76.2450075  32.3388958  74.5351362  76.7215872
  31.2764812  73.5183954  76.3631296  56.8969822   3.3125958  73.5928488
  57.8198290   3.1509462  73.7889481  56.4230204   2.9031044  74.3166637
  34.7637415  80.7981014  76.4587593  33.9599848  80.7399845  75.9422016
  35.4663658  80.8031368  75.8087397  38.1991053  31.2978911  20.3487515
  37.6248908  31.7665148  19.7430265  37.6971865  31.2449336  21.1620808
  53.5437632  64.6215391  58.9521360  52.8719711  63.9425278  58.8899374
  53.0835581  65.4338408  58.7409353  43.0175829  66.3023090  66.6592503
  43.8374329  66.0521936  67.0852995  43.0022049  65.7906961  65.8503914
  68.0115509  85.3222942  57.4219990  68.3565712  85.1386261  58.2957602
  68.5693359  84.8145866  56.8326378  42.2053576  74.0317059  47.7333498
  41.3245058  74.2775345  48.0160141  42.7844238  74.4196367  48.3894205
  38.2094598  80.3051758  73.8995457  38.1336308  79.9909592  72.9985762
  38.9888549  79.8669720  74.2412329  37.6473761  73.8292837  80.4922009
  38.1171060  73.1660128  80.9978199  37.2390914  73.3408546  79.7773695
  51.9976234  80.4911327  36.1659670  51.4190674  81.1118984  36.6088653
  51.5699100  79.6423340  36.2792778  91.8657112  22.0718646   5.2429008
  91.7976475  21.3702679   4.5953202  92.8025436  22.2618842   5.2925915
  15.1475549  10.5831027   1.1756515  15.1629198   9.8026800   1.7296691
  15.9270239  11.0752332   1.4334631  68.4570646   6.1782432  59.3197012
  69.1805553   5.7577729  59.7844553  68.2018089   6.9080448  59.8840332
  80.1362514  96.6392994  68.2532549  80.3214264  97.0349026  69.1049814
  79.2462921  96.2968731  68.3366203  31.2731624  25.0739741  13.0431175
  30.9654808  25.6387162  12.3341537  32.1591783  24.8229289  12.7819967
  33.9161944  68.3657026  74.5849895  34.3780446  68.9629602  75.1733828
  34.3680811  67.5285006  74.6904612  23.1096172  82.4275398  87.9495811
  23.2888341  81.8687916  88.7058258  23.8209343  82.2379398  87.3377705
  54.3292046  56.6424274  69.4371462  55.2487421  56.8832493  69.3245077
  54.2257071  56.5274572  70.3817654  42.8368521  67.9616261  48.9924908
  42.6287365  67.7327633  48.0866528  43.3643961  68.7573338  48.9233446
  19.8394930  74.0706491  67.5089502  19.5054543  74.9460220  67.3130512
  19.2873633  73.4827042  66.9934893  23.7346482  66.3272572  50.4683876
  24.5537019  65.8463240  50.5870867  23.8879657  66.8750668  49.6985626
  19.2101514  76.9656515  38.6714649  18.3673251  77.1187496  38.2443380
  19.8579478  77.2921848  38.0469918  25.0343227  84.7607994  60.8399534
  25.8686543  84.8061275  61.3069344  25.0200105  85.5496693  60.2979994
  56.1430407  97.9651546  85.9163761  55.2674770  98.3510208  85.9431458
  56.4751005  98.1848621  85.0459194  41.9005489  40.0937939  57.5571918
  41.3854694  40.5524731  56.8934631  42.5157738  40.7521582  57.8801346
  31.7235994  13.7051666  39.6997905  30.8312821  13.7596571  39.3576908
  31.9084930  14.5851791  40.0278521  65.5404282 105.0774097   1.1991281
  66.0060883 105.6091118   0.5536202  66.1829758 104.9246216   1.8919627
  55.1646376  79.7550774  61.6509724  54.2226410  79.8981285  61.5592718
  55.4388714  79.4128752  60.8001328  57.4776697  74.0493679  58.6385012
  58.0531120  73.2875681  58.7075233  57.2838163  74.1191959  57.7037430
   7.3095399  32.3500395   0.9585855   8.2158095  32.1099305   1.1515999
   7.3361015  33.2974505   0.8246522  22.0797443 104.2405796  54.5003033
  22.3487401 103.3682632  54.2123079  21.7011976 104.1001320  55.3681803
  49.2592335  82.4121952  47.2165298  48.9630222  81.5034294  47.1652937
  48.5099745  82.8885269  47.5742388  30.7768607  93.4867382  83.5587692
  31.1555099  92.9204845  82.8863049  31.2046862  93.2138443  84.3703938
  34.5298028  81.3034344  36.5588808  35.2831554  81.4091873  37.1398330
  34.5232964  82.0997143  36.0277271   8.0927998  80.2157211  72.5724125
   8.0672491  80.7029247  71.7488813   8.1120932  80.8915234  73.2500124
  32.3615861  34.5369959  66.2848425  32.2611189  35.2983189  65.7134199
  33.2919621  34.5273805  66.5096617  40.4998207  60.3233242  42.8690100
  40.1306248  60.8871078  43.5487700  40.3062630  59.4336796  43.1644726
  50.7244110  76.5288830  53.0111837  51.5474939  76.0883236  52.7998114
  50.9550428  77.4565840  53.0602980  52.7794218  76.4562750  55.7452965
  52.8907442  75.5076504  55.8081484  51.8473053  76.5994310  55.9092903
  59.0128613  72.1961594  70.4315948  58.8322735  73.0043459  70.9116459
  59.9608326  72.0831442  70.5008984  41.0009718  93.7940502  87.2264194
  41.5007162  94.4987583  87.6385689  41.0521269  93.9807129  86.2889862
  46.5847015  83.5657787  81.3726044  46.9526577  84.4489765  81.3440514
  47.2908115  83.0233765  81.7239285  42.3015976  97.7826595  78.2954168
  41.3686943  97.9796791  78.2111168  42.6627684  98.5318947  78.7691641
   3.2713848  82.9155159  34.4773769   2.6205742  82.2137737  34.4623852
   3.9538765  82.5966549  35.0679350  58.6258745  79.3914604  57.1048307
  58.7682199  79.4043255  56.1583614  57.7943754  79.8492956  57.2282267
  52.8542948  71.3090611  57.0393085  53.7656975  71.1056614  56.8290663
  52.4139309  70.4591799  57.0430183  70.4992771  95.4934883  54.4873619
  71.0155535  94.8510075  54.0006161  70.0614643  94.9826622  55.1682520
  27.5814652  98.7599277  59.1556311  26.9660521  99.4143963  59.4860506
  27.0314360  98.0153275  58.9121914  26.1172652  65.1450062  51.1574316
  26.7047048  64.6991158  50.5472422  26.4824414  64.9570656  52.0220470
  28.8557196  89.2357254  53.8109732  27.9438782  89.3980503  53.5692549
  29.3552756  89.4608212  53.0261135  24.4881606  37.8927541  53.8728189
  24.8957014  38.5382748  54.4502687  23.5476327  38.0238199  53.9930677
  39.3280458  80.4649162  83.1095409  39.4124579  79.7721195  82.4544525
  39.2512846  81.2702656  82.5979233  61.4215517  75.8236980  71.2417269
  61.4270496  74.9175215  71.5500212  60.6014013  76.1858082  71.5770721
  32.3813105 102.5242996  58.3984137  32.7293825 103.1676960  59.0157604
  31.4571548 102.4420738  58.6337996  35.9789872  80.2618122  42.4576664
  36.7938256  79.8860121  42.1244335  35.8162689  79.7931623  43.2762766
  26.9488907  58.1777239  58.5107231  26.5206385  57.7749300  59.2660999
  26.4906907  59.0095615  58.3910131  32.2377419  78.0019903  83.5004711
  33.1140542  78.3311129  83.3004951  31.7246199  78.1948709  82.7157879
  52.0089579  17.3317945  66.9340754  51.3851357  18.0009758  66.6525221
  52.3037052  17.6265132  67.7957582  36.3017464  92.2198296  68.9822197
  35.5141187  92.7493382  69.1067028  36.8612957  92.7521229  68.4167099
  33.4161115  59.2799902  49.4488382  33.4352255  60.2365875  49.4207811
  34.0598750  59.0082788  48.7946367  40.5079317  82.0167828  60.4607391
  41.1194229  82.2551727  59.7639704  40.6001472  81.0678577  60.5460358
  45.4546404  71.6782999  57.1009207  45.0421047  70.8186150  57.1845055
  45.8189297  71.8545103  57.9683733  57.0181561 101.5750027  82.8750801
  56.6612482 100.8121109  82.4202824  56.5368605 101.6078186  83.7018299
  70.9997654  98.0966282   4.3188590  71.2500763  97.1866417   4.1591603
  70.9668159  98.1721401   5.2725065  55.9587288  54.1669226  71.8770552
  56.1801815  55.0777102  72.0711231  55.2704906  53.9486504  72.5054789
  33.0072761 105.9078884  63.5497284  33.1831384 104.9673557  63.5232687
  32.0601988 105.9710789  63.6733532  78.4435415 104.5444107  58.4652567
  78.5181189 103.9010525  59.1700745  77.8069544 105.1817036  58.7890577
  56.5589142  73.6627388  72.0465565  56.5014458  74.5511007  71.6947794
  56.0557985  73.1286955  71.4318180  34.0095592 100.9687996  59.6691942
  33.6157179 101.6210461  59.0897989  34.8235369 101.3742352  59.9680042
  97.2566795   7.2650903  82.2244835  97.5765610   7.2689980  81.3223171
  96.4527035   6.7466682  82.1912861  35.9777975  71.3938046  79.1755819
  36.5241718  70.6251764  79.3396473  35.5921674  71.5997219  80.0271225
  26.3977671 105.7789135  86.2585068  26.4182329 106.2926197  85.4510975
  26.6629958 104.8993874  85.9895897  11.7148554  85.7719707  73.3831739
  12.6228082  86.0740471  73.3587074  11.1957800  86.5756321  73.4133863
  53.5719395  60.5108023  83.6674881  53.4099531  60.0560045  84.4940186
  52.9004335  61.1920929  83.6333847 102.7774715  50.2311611   8.1740320
 102.2310257  50.2152061   7.3883033 103.1866169  49.3661690   8.1988293
  95.6790638   6.7442018  68.9607096  96.0549259   6.9806153  69.8086882
  94.9473286   6.1658579  69.1759253   4.3772742  81.1531162  41.8757629
   4.0420234  80.6592369  42.6240492   4.8391497  80.5025387  41.3469315
  50.5990267  83.0555439  42.2933674  49.8966551  83.0572128  41.6430569
  50.1739502  82.7763557  43.1042910   5.1581830  54.3048000  80.0145149
   6.0224295  54.7127438  80.0682926   5.1777601  53.8092566  79.1958046
  11.4787817  81.6041756  91.8996429  11.0955608  82.4213409  91.5808582
  10.8603728  81.2911415  92.5597954  48.1217957  57.6121473  65.2070808
  48.7043047  57.7633524  65.9514284  48.7099075  57.5205803  64.4574356
  74.5319176  81.6983604  38.8019919  75.2436876  81.7206192  39.4416142
  74.4531631  80.7747364  38.5633373 103.9113998  40.3806925   1.3292328
 104.0429306  39.5361328   1.7601024 103.3091450  40.1912928   0.6097490
  84.3761253  76.9368982  43.9794159  85.0333309  76.8133736  43.2945442
  84.8796272  76.9599771  44.7931671  48.4786320  87.3492908  71.4068508
  47.5952196  87.7099991  71.3313389  48.6217546  86.8908882  70.5788326
  56.1711693  74.7599459  53.4525013  55.8789206  75.4239655  52.8280878
  55.5790186  74.0212679  53.3112812  47.5126171  81.2829781  85.8142185
  48.2041407  81.4186478  86.4620018  47.4465132  80.3317738  85.7300949
  30.7348967  83.5904312  84.5540047  31.1737156  84.1897583  85.1577187
  31.4457560  83.1979752  84.0471649  24.0264893 100.4276371  89.9179840
  24.7592640 100.8824253  89.5027161  23.2924342 100.5581379  89.3176842
  74.4193792  64.5890665  79.1711187  75.3488779  64.3747330  79.0915728
  74.3629980  65.1191473  79.9661446  53.1285954  74.3407440  80.6679535
  53.0372620  74.4403887  79.7203445  53.9841604  74.7208261  80.8673859
 111.8906021  49.4847918  48.2394743 111.4975643  50.1410246  48.8148975
 111.2380219  49.3465281  47.5529957  33.8518953  72.3417139  66.8204069
  33.1796622  72.4678516  66.1507607  34.6687913  72.5946331  66.3903570
   4.1987059  35.8260226   9.1399693   3.5389125  35.7518172   9.8294604
   4.0033585  36.6586828   8.7101454  95.9094906  11.4772034  57.9877949
  96.2342548  12.2975779  58.3589363  96.6978645  10.9593701  57.8248453
  59.0369415  97.3105049  85.9710407  59.8182011  96.7587471  85.9332466
  58.9909458  97.5984287  86.8827534  47.0685959  68.4142733  58.0827522
  46.4799023  69.1487837  57.9090881  47.4867249  68.6341000  58.9152622
   8.3710670  81.9313335  41.2712288   8.6470461  82.5915146  41.9070148
   9.0861136  81.2950706  41.2609291  74.4858456  93.2872581  74.5254374
  73.8870764  92.5959301  74.8078680  75.1705027  92.8274250  74.0396118
  41.2285233  81.6094780  87.2204208  41.4477015  82.5254345  87.3913383
  41.9814682  81.1178017  87.5484085  79.0227604  85.1162815  91.2339783
  78.7876034  84.3218803  90.7545471  78.9005756  85.8233738  90.6004810
  90.1205730  80.8431149  84.5324326  89.9098396  81.2496853  85.3729820
  89.4053936  80.2256870  84.3790340  87.5101852  86.7411995  58.9679670
  87.7142620  86.1527061  59.6947861  88.3636761  86.9806194  58.6067533
 107.6941204  50.9086514  67.0902109 108.6049747  51.1796570  67.2048235
 107.6151371  50.1085091  67.6095963 103.5495186   2.6254416   2.3683602
 103.9203358   2.3078828   3.1916952 102.6317787   2.3551679   2.3990011
  31.0507655  70.0062466  79.5675564  30.2446866  69.6035004  79.2446566
  31.1223793  69.7057819  80.4735470  21.4255595  71.0871363  10.9570765
  22.2963643  71.2271261  11.3290107  21.2724686  71.8570471  10.4093266
  23.1802893  73.6842394  81.3663006  23.2241988  73.1104660  82.1312141
  22.7680445  73.1486511  80.6884861  39.6600437  87.1387196  60.8760691
  38.7633395  86.9875717  61.1749172  39.5775032  87.2807121  59.9330664
  47.8671646  86.0787201  48.8440466  48.7541914  85.7739830  48.6528540
  47.3447895  85.7767105  48.1009769  42.8847361  90.7275105  76.7319870
  42.5098562  89.8604107  76.8864012  42.5379610  90.9899807  75.8792925
  41.3632870  75.6576967  72.7088976  41.6510010  75.4447556  71.8211412
  41.3260269  74.8130417  73.1576729  59.6919918  82.8366184  42.1535873
  59.4274759  83.1301308  43.0254316  59.2702007  83.4531593  41.5550947
  29.4805169  82.8428841  24.1542673  29.8096943  81.9482422  24.2407441
  28.9067125  82.9611874  24.9112272   1.0474844   3.5621351  67.0771027
   0.5682773   2.7516967  66.9045258   0.4657762   4.0681940  67.6443338
  34.1978955  35.0241399  49.5393705  34.2925620  35.4130340  48.6698675
  35.0936913  34.8245645  49.8113060  14.1144812  31.3165092   2.1565619
  14.8561561  31.9158792   2.0734642  14.2475212  30.6728983   1.4606485
  47.0436573  98.8928604  82.2718811  47.6838064  99.3403435  82.8252316
  47.5169420  98.7060452  81.4611244   9.2990059  80.6707287  89.3174076
   8.6491269  80.0241852  89.0419579   9.1652292  80.7576942  90.2612209
   0.5037156 102.5020790  63.5282469   0.2759087 102.3938560  62.6048660
   0.6093405 101.6086674  63.8551807  18.7396586  70.0933647  46.5787792
  18.4005952  69.9589014  45.6938028  19.1540444  70.9556723  46.5480566
  22.6913309  58.6032534  57.5924253  22.9637742  59.5192194  57.6473045
  23.3338642  58.1966829  57.0109749  32.8292227  78.6039495  37.3626208
  33.1317949  79.4270849  36.9790483  32.2582603  78.2241154  36.6948199
 106.1284637  60.5178785   9.6412718 105.7941151  60.8782387  10.4626000
 106.8499660  61.0991383   9.4008207  40.9194136  71.0452175  69.4668102
  40.5512953  71.6776848  68.8497972  41.0488844  71.5446377  70.2730656
  44.6992397  58.0056620  67.9635477  44.4467545  57.7478361  68.8501167
  44.9799776  58.9166880  68.0498409  52.6959658  87.2887135  76.1141014
  51.8697834  87.7332306  75.9241962  53.3409214  87.9940605  76.1665010
  31.8081903  83.3461285  80.4091930  31.1708760  82.7781010  80.8421040
  31.4387608  83.5017776  79.5399809  65.0785494  73.8993454  55.5960512
  65.0747061  74.3508148  54.7520208  64.9227476  74.5914936  56.2386131
  67.2874451  95.6563091  57.3421669  66.6915560  96.3413239  57.6453161
  68.1276655  96.1013794  57.2317982  87.7855778  60.6119299  55.2552748
  87.5815773  60.8890247  56.1484909  88.6814690  60.2787971  55.3065634
  23.2987213  81.8161201  47.5932264  23.9855194  81.3846970  47.0848751
  22.4882531  81.3952923  47.3063898  12.6662087 106.1127567  52.9919386
  13.0532777 106.5753174  53.7352085  13.2348514 106.3288307  52.2528934
  38.1785798  73.8098812  15.3229308  37.5115585  74.4616270  15.1071930
  37.8387904  72.9909563  14.9621868  46.3294220  49.4722033  64.5194292
  46.6914892  49.8580694  63.7217760  45.4226303  49.2639685  64.2945099
  25.8793974  81.8619633  89.8832798  26.2627411  82.5903511  90.3718853
  25.0998688  81.6215611  90.3840542  21.8911362  62.3699141  40.6630278
  21.8357348  63.3188200  40.5501413  21.9570446  62.0261717  39.7721148
  14.3545115  65.8363295  78.5256243  13.8236535  66.2774897  79.1887999
  15.1699829  66.3368940  78.4997034  33.8595748  45.4667044  47.4605846
  33.9716768  46.4121151  47.5598812  34.7310996  45.1041746  47.6194763
  13.6074293  48.4488344  33.4363508  13.4949517  48.0570126  32.5702929
  14.5393026  48.6624479  33.4834003  42.0344305  98.0939484  54.4712496
  42.2902346  98.7683582  53.8419867  41.3428736  98.5022736  54.9920702
  59.6712494  84.0332699  79.4155979  59.4287109  83.1407356  79.6621370
  59.4794035  84.0836048  78.4791708  62.3674870  11.9744241  75.0912762
  63.1147432  11.3779414  75.1365232  61.9214869  11.8637395  75.9309530
  59.9936008  86.9277191  44.8747969  60.1835346  85.9936523  44.7872066
  59.5280218  87.0003605  45.7079792  51.3101625  94.9726868  84.9794865
  51.5016747  95.0252819  84.0431118  51.9631672  95.5397224  85.3897285
  73.6389971  71.6874599  58.9423418  73.0413961  70.9831619  59.1934824
  74.1258144  71.8852091  59.7424269 103.5596275   8.2018709  77.8230238
 102.9258919   8.7600970  77.3724747 103.0507374   7.7642798  78.5055017
  74.8925018 102.5139427  91.7731094  75.7977819 102.2611618  91.5919876
  74.9491739 103.0640793  92.5543690  43.7466908  89.0547276  58.4711456
  43.4926510  88.1387806  58.5840559  43.1795883  89.5365238  59.0732193
   0.9289648 106.1845112  67.4508142   0.4633044 105.7701397  66.7243958
   1.1369345 105.4631329  68.0446053  34.9081945  68.9767885   2.8635243
  35.0978422  68.3212566   3.5347477  35.3188419  68.6329842   2.0701766
  75.6628990  11.3805199  37.4993062  76.2885618  10.8015990  37.0638371
  74.9023438  10.8253145  37.6711416  57.7961636  88.0360508  63.7272310
  56.9274426  87.6377296  63.6734390  58.0929613  87.8441906  64.6167994
  26.2675261  89.2204285  57.2334337  26.4774203  88.2975960  57.0900965
  27.1160531  89.6633148  57.2240448  50.9274292  82.6079273  49.5584440
  50.2839947  82.3138237  48.9136696  50.4115725  83.0747509  50.2158594
 106.8526840  16.9137001  52.8821707 106.7400455  16.1880708  52.2681665
 107.3665237  16.5428364  53.5995722  53.5159111  92.8334904  75.2173519
  53.2374668  93.5690498  75.7629299  54.4287539  92.6845264  75.4638529
  79.1155577  27.4753308  82.1452427  79.5660877  26.7973495  81.6416550
  79.3232536  27.2737956  83.0576420  33.8313150  89.8563576  79.1039181
  34.1699696  89.1297245  78.5808897  33.2835078  89.4383335  79.7682953
  52.8753853  59.2419958  89.1189575  52.8367996  58.3585882  88.7524319
  53.7617540  59.3160486  89.4726562  81.2901211   3.6102101  58.6919069
  80.8169270   3.3541876  57.9002190  80.6638813   3.4681261  59.4017458
  36.6114712 105.0073624  87.9559994  35.8709168 105.3520203  87.4569798
  36.6412258 105.5484867  88.7450027   7.9390484  27.5539517  92.7157974
   7.4691218  27.6824975  91.8918610   8.6053139  28.2411861  92.7212715
  55.4764891  83.5724354  45.6629467  55.6539965  83.9553642  44.8038292
  54.8083210  82.9078007  45.4955006  66.4988661  76.9810104  66.6177464
  67.0526409  76.7043352  65.8876657  65.9256840  76.2319565  66.7808676
 104.4938946   9.7444725  58.7307024 105.3294563  10.1786518  58.9026260
 104.2006874   9.4405621  59.5897150 110.9136391  18.1626272  79.2720509
 110.1837540  17.8338289  78.7472725 111.5943241  18.3704519  78.6319733
   6.8755776  69.4150782   7.9825801   6.9933331  68.6089039   8.4850186
   7.7245557  69.8544025   8.0322146  58.0392790  90.4006958  70.7857418
  58.5290289  89.8171234  70.2062368  58.4335375  90.2683067  71.6478682
  52.8015947  99.8908138  87.0360279  52.3064756  99.4524384  87.7280617
  53.6162090 100.1619053  87.4592781   9.9077082 102.0160484  75.3494453
  10.6790996 102.5480938  75.5446863   9.8411506 102.0320034  74.3946934
  37.6619673  20.8644629  69.5952034  37.0776677  21.5515399  69.2746592
  38.5136104  21.2935543  69.6777725  73.8082266 102.8256607  63.2910967
  73.9162111 103.0362797  64.2185736  73.0861521 103.3832455  63.0013609
 102.4371624  14.3432546  22.3509574 102.1585655  15.2554584  22.4315572
 101.6967678  13.8363469  22.6842594  41.1905479  96.9430637  82.9459286
  41.0418510  97.8563213  82.7008438  41.3361979  96.4924908  82.1140575
  49.3664789  94.9778652  89.8337078  49.4130325  95.9091187  89.6173191
  48.4725380  94.8501396  90.1511765  20.1413846  87.5279522  43.5012674
  20.0659680  86.6571999  43.1109810  19.2666614  87.7140331  43.8425398
  53.0601978  82.5399113  84.1572952  52.9257250  82.8579235  85.0500488
  52.9032421  81.5972900  84.2126274  26.9598269  80.5397320  83.9672279
  27.9038763  80.4687214  83.8259506  26.6043305  80.7567596  83.1054020
  47.7521992  86.6064930  24.1252995  47.7717781  87.3234367  24.7592044
  48.3881760  85.9739304  24.4594145  16.8387341  34.1731787   7.1099401
  17.5428092  33.6459327   6.7324215  16.0425067  33.8424325   6.6941768
  73.2737732 103.0640125  84.9846649  74.1206074 103.4880161  84.8456478
  73.4369707 102.4247265  85.6781387   7.1768677  81.8420601   1.9177838
   6.8871319  81.8090820   2.8294843   6.6878867  81.1418152   1.4855944
  76.1737299  75.7773972  46.6680670  75.6216478  75.7253551  47.4482822
  75.6981945  76.3607645  46.0766459  93.9179993  12.7825320  16.4995360
  94.5718575  12.7939856  17.1985185  93.1386471  12.4043941  16.9067788
 101.2518692  34.6753645   2.9365763 100.4422379  34.6432066   3.4461823
 101.5166569  33.7596393   2.8495908  85.2246571  28.5937452  57.4745941
  85.2157497  27.6392245  57.4035788  84.5668697  28.7904453  58.1415701
  13.9918017  49.1310406  24.2105079  13.7140799  48.3982515  24.7601628
  13.9747977  48.7819338  23.3194017  17.7291977  18.3066165  86.5782356
  17.1453154  18.6429203  87.2580910  17.1779776  18.2449615  85.7981110
  22.2092986  27.6699114   6.1192799  21.4119840  27.9975343   6.5354353
  22.2900724  28.1857586   5.3170282  55.5841494  94.9004173  52.9936409
  55.4184055  95.2566147  52.1207857  56.5383577  94.8765850  53.0653811
  45.8433962  72.1463776  53.0652475  45.5189419  72.4890566  53.8980341
  45.0847960  72.1758938  52.4822569  63.6440992  99.1605282  75.0826406
  64.3441153  98.9898205  74.4525099  62.9367256  99.5365810  74.5587730
  79.2950916   9.1508824  85.6342888  79.1962767  10.1029587  85.6300640
  78.5121965   8.8308120  86.0824585  81.8555260  96.0077381  87.4145794
  81.8039417  96.9461632  87.2330761  81.8550205  95.9481907  88.3699226
  31.2601900  85.8916950  53.7751150  31.6061044  85.1170444  54.2183924
  30.4734802  86.1197662  54.2703962  51.3047409  95.4599094  59.2302084
  50.4423809  95.6769180  58.8759756  51.6980457  94.8890114  58.5701942
  35.9995031  88.8336563  77.4870253  36.6462994  89.1835499  78.0997705
  36.3877797  88.0188751  77.1682787  46.5589571  88.5206604  64.6391106
  46.5392303  89.2116928  63.9770508  47.3640108  88.6829853  65.1308203
  78.0261517  15.3206182  73.7063646  77.5889921  15.6384933  72.9163790
  78.5851383  16.0479081  73.9798880   4.2713550  15.5488420  58.2237196
   4.3993878  15.2273750  59.1161871   4.0168628  14.7731566  57.7239418
  88.9568424  15.0160718  58.5158539  89.1267395  14.9400294  59.4547796
  89.7288895  14.6314764  58.1008244  57.3336315  70.0082827  70.6733465
  57.7459288  69.1539764  70.5452824  58.0594635  70.5951309  70.8855104
  29.5943141  96.0759640  59.9869156  30.2615643  96.1565304  60.6684685
  29.4800186  96.9672394  59.6570730  75.0207186  92.4185848  65.2601051
  74.3639565  91.8489647  64.8595667  74.9685097  92.2233582  66.1957264
  58.9598751  61.5451193  82.6995945  59.7673035  61.1584377  82.3608208
  58.5437298  60.8376217  83.1920433  66.7988014  71.1686563  61.5745449
  67.5519180  71.0268641  62.1480799  67.1724129  71.5432310  60.7768345
  60.4409456  96.1849213  55.8168507  60.4676294  97.1243477  55.9984970
  60.6052446  95.7722569  56.6647625  67.0501423  10.3507316  52.5374365
  66.4507055  10.5578732  53.2543707  66.4844179  10.2612042  51.7705107
  61.3744640  78.0955410  66.4004803  61.2312412  78.2001686  65.4598570
  61.8492365  78.8852215  66.6597605  53.6514378  90.7386112  42.4089241
  53.8484192  91.2055683  41.5969086  53.2713175  89.9084282  42.1216393
  57.1255636  97.0881081  75.0295448  57.1590376  98.0436325  75.0752115
  56.5884638  96.8311787  75.7790375  35.9521365  61.6612577  48.1872940
  35.6549668  60.9669304  47.5992155  36.8446708  61.4090252  48.4239244
  64.1811657  97.4548149  81.0865116  64.4350910  96.8121052  80.4241848
  63.7742472  96.9358253  81.7802620  94.8107910   0.3279546  74.3453121
  93.9900398  -0.1644225  74.3323803  94.5916176   1.1694229  73.9451551
  45.2143383  93.7899017  71.8352509  45.8331919  94.5177364  71.7760944
  44.8981047  93.6709976  70.9396553  71.1154270 104.3292141  56.0361624
  71.5617847 104.8146439  55.3423691  71.7609596 104.2699146  56.7404366
  48.6171150  68.6690617  85.6804943  49.4258356  68.9435816  85.2482510
  48.0360079  69.4258547  85.6042957  34.2475343  91.0770988  47.5266790
  35.0653410  90.6221581  47.7277994  34.4817090  92.0051861  47.5339365
  85.5388260  90.6297207  69.2246294  85.2660847  90.6382751  68.3071470
  85.8284950  91.5256596  69.3967533  34.2036915  77.0839787  49.6917152
  33.7300372  77.8924608  49.4961643  34.4127941  76.7153263  48.8334608
  75.0434637  20.1465702  53.3892155  75.6083298  20.5519652  54.0470982
  74.6711302  19.3832731  53.8307762  38.0686426  12.7359951   0.1872925
  38.2599616  12.1732843   0.9376159  37.5777650  13.4697735   0.5572110
  33.8586259  89.4727230  57.9953003  33.8036299  89.6202183  57.0511341
  33.7035346  88.5340500  58.1005192  37.8757596  66.2246895  40.2880764
  37.1948910  66.1130428  40.9515429  37.6017213  65.6590843  39.5661187
  85.0213242   6.4908022  56.4878893  84.1280651   6.3349962  56.7945480
  85.5118084   5.7218170  56.7782784  29.7845054  96.8701744  87.1551991
  28.8808084  96.8238068  86.8430805  29.7060204  97.0799255  88.0858326
  68.6124706   2.0094143  61.5188599  68.8397789   2.6877791  62.1547699
  67.7309561   1.7325093  61.7688370  27.0248961  63.0296183  72.0483112
  26.7911983  62.6174164  71.2166214  26.9407845  63.9685440  71.8822527
  53.6000204  81.6759968  45.6981993  52.9523516  81.0861301  45.3124380
  53.3524942  81.7329025  46.6210842  16.9534421  14.4366097   2.7549237
  16.1049116  14.6323740   2.3575535  16.7717850  14.3826187   3.6931759
  88.7191200  28.3387899  66.2814331  89.0182018  28.4748983  65.3823996
  89.4058323  27.8075409  66.6844606  23.3674479  35.0853729  15.5976462
  22.4469924  35.1912975  15.3572857  23.5440516  35.8118844  16.1953294
  98.2209492  54.7919607  21.2347865  98.8285255  54.0550756  21.1709356
  98.5873032  55.3453875  21.9245219  32.5105834  16.5014684   3.9963526
  31.8761992  16.2044299   4.6486986  32.7668571  17.3750794   4.2919192
  96.6048527  96.0618687  68.8922882  97.2197056  96.0929871  68.1593323
  96.1239052  96.8875980  68.8366795  37.0808029 104.0760612  45.3349876
  36.4135218 103.4717560  45.0097322  37.0518017 104.8147488  44.7269344
  93.2738590  81.8280792  78.3559132  93.6354160  81.1118698  78.8779783
  93.1248474  81.4433670  77.4921894  49.6439886 103.8139439  83.5392761
  50.2882767 104.3744183  83.9717007  49.8863125 103.8404942  82.6136398
  35.0262547  78.1749630  53.8594866  35.3443360  78.4143734  52.9890060
  35.5468440  78.7086058  54.4598532  65.1261902  91.5349102  83.7538528
  65.1321983  92.4358654  84.0770817  66.0511351  91.3117504  83.6494064
  82.3538494   6.5328580  62.5464392  82.9586411   6.1639655  61.9027185
  82.9163074   6.8241513  63.2640934  67.9318523  12.5253248  71.1919403
  68.4322882  13.2830799  70.8892822  67.9337978  11.9240236  70.4471779
  16.8808174  92.7818680  79.3748474  16.2810755  92.2407913  79.8884344
  16.3268125  93.1854248  78.7066746  21.5920353  61.2810850  63.6105299
  21.1945248  60.7611418  64.3090105  21.0608315  61.0897732  62.8375816
 109.3877983  44.0722513  24.2386270 109.0419197  43.5119963  23.5438490
 109.4787598  44.9327755  23.8294101  88.7742519   3.2466298  50.1494169
  87.9839993   3.7251532  49.8989105  88.7698746   2.4684989  49.5919895
  62.2057533  94.1165352  46.1211967  62.8027058  94.7058678  46.5822506
  61.4637661  94.6698952  45.8773184  39.7082043  29.1169190   9.9061191
  39.2727566  28.2795763   9.7465038  40.4913235  28.8880444  10.4066908
  18.7415063  38.4695768   6.2206560  18.5192978  37.5962639   5.8978903
  19.0210533  38.3267641   7.1249181  27.3363376  11.3417184   7.3831677
  28.2887220  11.4284194   7.4241310  27.1904159  10.5294514   6.8982327
  54.2880011  76.3945866  78.5114861  54.2990637  76.6296625  77.5836658
  53.9020920  75.5188704  78.5321045  19.7886539  92.7515411  87.4347591
  20.1632547  93.6268234  87.3358917  18.9229250  92.8145504  87.0313072
  76.8888092   8.6396933  86.8352413  76.8363380   7.8307551  86.3262272
  76.3449526   8.4738463  87.6052761  37.4438143  72.0591593  75.4673815
  36.8507171  72.5122833  76.0666752  37.5605989  72.6692581  74.7391176
  24.7660184  64.1775465  58.0806303  24.2025685  64.0294743  57.3211336
  24.3009233  63.7643576  58.8080883  29.2701793  77.0670700  88.3322620
  29.9573159  77.1945620  87.6781845  28.6669779  77.7968073  88.1913280
  49.5561552 101.6798306  74.8147917  49.4678402 101.2717915  73.9534330
  50.1888466 101.1297417  75.2766705  84.2267799   7.8918576  82.7651119
  83.5999870   7.2319680  83.0615997  84.8910236   7.3941439  82.2883606
  73.5414314  68.4263086  83.7505913  73.3669376  68.5703659  84.6806622
  73.0524349  67.6320839  83.5353661  43.8475800  99.6186161  80.3752327
  44.2554617  98.7868023  80.6159401  44.5829105 100.1930428  80.1618004
   0.8433481   6.5927619  53.4505749   0.6379492   7.5167280  53.5931587
  -0.0100615   6.1611336  53.4103155  67.5836897  78.5581207  92.0572186
  67.4570227  78.4101868  92.9943943  67.4972868  77.6897764  91.6638374
  98.0531311   0.3605048  73.6829853  98.4045601  -0.5165128  73.8365030
  98.0659294   0.7778207  74.5443296  25.4539156  84.7237301  64.6164799
  25.6493187  85.5160904  64.1162634  25.1748228  85.0445843  65.4740286
  35.8531523  87.5576973  53.9756441  36.2286997  88.3308601  54.3968487
  35.4620337  87.8910828  53.1681061  61.9522762   2.3936459  87.2377682
  62.5010729   1.9718464  86.5765953  61.9434977   1.7775439  87.9702759
  46.9374514  91.1220551  66.8718195  47.4809742  91.8480587  66.5656614
  47.5193405  90.6058788  67.4296761  65.5124474  69.8971653  63.7862921
  64.7458076  70.4683542  63.7389231  65.9220695  69.9741220  62.9245949
  33.6449575  79.3553400  79.8161316  33.1362653  79.1975927  79.0207815
  34.0548992  80.2083874  79.6730042  59.3202496  79.3728256  31.9667482
  58.7430096  79.7046757  31.2790680  59.8898554  78.7466764  31.5198469
  60.6164885 102.4838829  79.2965317  59.9275160 102.3348618  78.6489630
  61.3848782 102.0425034  78.9346123  98.0389881   5.0289488  50.8482885
  97.2448063   5.5399966  50.6922865  97.9072857   4.6395412  51.7127275
  91.9660282   3.9645731  64.0823841  92.5753307   4.2396551  64.7674465
  91.2458897   4.5928717  64.1359472  47.6372766  70.3761435  62.7306890
  48.2677031  70.6695366  63.3885050  47.5951481  71.0961771  62.1014023
  66.3993549 105.8666039  60.5325079  66.7107010 105.0379562  60.8967161
  66.4663219 106.4873314  61.2580681  55.3163385  93.0151653  90.8904266
  55.0467682  92.3594284  91.5335178  56.0137510  92.5892448  90.3919792
  31.8380618  83.2151985  54.2630816  31.3742566  82.3872375  54.1381931
  32.6287866  82.9761982  54.7466850  16.8037105  85.7944584  50.7973099
  16.4390135  86.4800835  50.2377129  17.1513581  85.1456070  50.1854563
  47.0709753  94.1897583  57.5405169  46.1475420  93.9975166  57.7034283
  47.2252226  93.8839531  56.6466904  63.1495285  75.3509712  66.7342281
  63.2218885  75.9996843  67.4343491  63.7734127  74.6666050  66.9764090
  84.6888256   2.8327838  66.6598654  84.7089577   2.6689500  67.6027250
  84.8465443   1.9754930  66.2643766  19.4854915  59.3080473  31.3173485
  20.2747917  59.4011354  30.7838964  19.6990311  58.6150217  31.9421315
  49.8780823  67.1065283  63.0584192  50.0415325  67.9226971  62.5857830
  50.6183624  67.0256424  63.6598158  21.6726565  96.4465237  89.8916626
  20.9081936  96.8368626  90.3152943  21.6145825  95.5149841  90.1040173
  61.8243551  90.5480576  23.6474872  61.1327600  91.1224842  23.9760613
  62.2615623  90.2247334  24.4352341  42.2886610  88.3675289  54.4355154
  42.3304796  87.7350140  55.1527405  42.7213335  89.1489029  54.7797155
  90.5307102   6.5516025  56.2041759  90.8972549   7.4080479  55.9842205
  89.6004581   6.6275024  55.9917974  79.5368862   6.2385130  62.0436335
  80.4938221   6.2558264  62.0290613  79.2976236   5.6315500  61.3432217
  55.8929777  95.9303093  77.7221251  55.7244158  96.4680862  78.4958220
  56.8172693  95.6917667  77.7929831 111.7260551  36.2935495   5.5699289
 112.3317337  36.1103559   6.2881404 110.9338951  36.6147447   6.0006827
  33.9438128  93.4760380  69.3330097  33.6208081  93.4876442  70.2339888
  34.1677785  94.3879128  69.1471004  46.9759035  69.5555305  53.5752487
  46.8852282  70.3849268  53.1060839  46.0888672  69.3485641  53.8694620
  45.6488085  89.5301819  54.7168827  44.9214983  89.9861717  55.1403522
  45.6046629  88.6378860  55.0605106  67.3658800 104.0200996  85.0999069
  67.5177002 104.5139885  84.2941475  66.9549847 104.6493626  85.6927204
  87.4007607  14.9195969  31.6145682  87.5011349  14.8337662  30.6665230
  87.9438305  15.6731892  31.8456650  87.7831650   6.1134207  78.3784389
  87.9775429   6.6805708  77.6322556  88.4158516   6.3733429  79.0480518
  59.1897774  84.6022987  67.4065208  58.7027454  85.0964069  68.0659771
  60.0607634  84.4889927  67.7870131  44.4427156  91.1562538  66.2804508
  44.4326401  91.3211441  65.3376102  45.3681755  91.1988163  66.5211630
  65.3196859  73.3224916  82.1729183  65.4517794  72.3825932  82.2969055
  64.4386482  73.3941507  81.8056774   2.6786992   8.6293024  51.2116432
   2.6025113   9.2651129  50.5001831   1.7784280   8.4892255  51.5051079
  54.6201563  89.1670036  76.3244867  54.5855188  89.6741295  77.1355677
  55.1203871  89.7155190  75.7202244  33.5825539  87.5579071  89.6681499
  33.2223725  86.8764496  89.1005993  33.3300018  87.2915554  90.5521774
  20.7998228  20.7984567  20.6576276  20.5486155  19.9798095  21.0853457
  21.7449975  20.8605361  20.7955551  65.4294443  77.0428085  85.5288982
  65.5138969  76.9295454  86.4756107  65.9754610  77.8031588  85.3289890
  94.6019554   0.1333044  86.6732597  95.2017117   0.3047097  85.9472084
  93.7343979   0.3266742  86.3180256  45.2084732  80.0455284  57.5429153
  44.3561983  80.3121090  57.8875780  45.5393267  79.4155455  58.1831408
  93.5340214  35.2229285   3.6186031  92.7532959  35.0155854   3.1050700
  94.2506886  35.2006888   2.9844725  41.2292719  94.7226715  71.8322420
  41.8035650  94.4381523  71.1212826  40.3930807  94.2935276  71.6509914
  32.7896404  44.3167591   4.9751318  32.1398282  44.9474764   4.6650219
  32.4654651  44.0407991   5.8324462  31.2805414 101.7040253  37.6269841
  30.3786039 101.4013100  37.5216007  31.3114977 102.5344944  37.1520185
  54.7488403  96.0070610  60.2812243  54.7949600  95.3839111  59.5561075
  54.3517780  96.7898750  59.8994160  73.8483286  86.0181046  57.2609282
  73.9826202  85.6285763  56.3969421  74.6822119  85.8907413  57.7133131
  33.7320781 104.4246006  60.0460482  33.1507158 104.1253281  60.7451057
  33.9844561 105.3102493  60.3071308  87.9411602   1.8630359  63.1138992
  88.0239487   2.7955016  62.9141855  87.3374271   1.5287144  62.4505949
  64.6326733  83.2851124  74.1911697  64.8894739  82.8712845  73.3671331
  64.5567322  82.5590801  74.8103237 101.9264126   8.1675571  81.4036560
 101.2679482   7.5780481  81.0360432 101.9787598   7.9219812  82.3273373
  70.6106567  21.7631388  86.1816788  70.5464506  21.7943001  85.2271461
  70.8757830  20.8638644  86.3746738  84.2685318  13.8463700  25.4004097
  84.6849060  14.6912217  25.5709648  84.9964142  13.2548666  25.2092600
  53.6297750  71.2511492  68.3773232  53.8033390  70.4999304  67.8100681
  52.8696251  71.6786337  67.9827738  47.6168919  78.4207249  85.9599781
  47.3599815  78.3362436  86.8781757  48.5739231  78.4194279  85.9779453
  49.3925238  94.9801826  54.6416330  49.6038914  95.8876705  54.8607731
  50.1098967  94.4697666  55.0172377  51.1081076  60.2477741  20.3914118
  50.7656670  60.6708002  21.1788201  50.5638123  60.5874348  19.6810591
 109.3062305  18.3606946  13.3873916 108.4140396  18.2672930  13.0534911
 109.2196655  18.2552195  14.3348157  69.3785048   4.5353019   9.9219662
  69.1866970   5.1753527  10.6073689  69.6536589   3.7510622  10.3968251
   9.2253679  83.5925770  80.8458519   8.6125451  83.2158661  81.4773273
  10.0890410  83.3304501  81.1645699  41.7843294 103.9205170  44.3628359
  41.1007547 103.4245014  44.8133135  42.4029636 103.2555866  44.0605211
  70.8512449  66.4815569  90.3408241  71.4754152  67.1928787  90.1970768
  71.1522007  66.0575724  91.1444950  67.5989151  89.2828751  85.3886604
  66.9492674  89.2436790  86.0905552  68.4088087  88.9735126  85.7943535
  23.5674500  38.8095117   1.1775701  23.9649439  38.2972765   0.4734066
  23.6266685  38.2442498   1.9477680  63.5577202  73.3782482  70.2768755
  64.3981838  73.7346888  69.9891233  63.4901714  73.6364317  71.1961222
  66.4060640   4.0760460  79.9495506  65.5714703   4.0451574  80.4172421
  66.4522171   4.9661389  79.6005011  37.9609919  91.9139290  77.5986814
  38.0230975  91.1762047  78.2054234  37.6170588  91.5317154  76.7913055
   5.5809414   1.0427209  69.9037170   5.8447552   1.6502564  70.5947542
   6.1508328   1.2577643  69.1653299  61.1862135  93.8999939  68.1444263
  62.1337414  93.8643742  68.0134439  60.8667088  93.0613518  67.8115129
 103.5375595  28.9235473   1.7404824 103.7744999  28.6937833   0.8419843
 102.5938320  29.0799880   1.7067663  58.8519573  90.6761742  64.4047499
  58.6267281  91.4374733  63.8700294  58.2616806  89.9867630  64.1005850
  26.7968726  97.5368500  63.3333111  27.7102661  97.5973034  63.6131096
  26.3299823  98.1446266  63.9067698  66.1451340  78.9514017  73.3803654
  65.7442999  78.2120895  73.8375187  66.8063545  78.5530376  72.8143978
  34.2898631  62.1178389  65.4774523  34.3732262  62.3541403  64.5536280
  35.1771569  61.8774366  65.7441902  57.0222187  98.2502174  55.4716110
  56.9743633  99.1534233  55.1582813  56.2559271  97.8230000  55.0888443
  32.8740096  84.1298485  21.4098096  33.2366824  83.3781528  21.8784738
  31.9313931  83.9651299  21.3858700  69.4483662  72.1805048  35.9216762
  68.5059643  72.2494841  35.7688355  69.7651386  73.0825901  35.8755922
  72.2744608  91.5574741  45.6429529  71.6479921  92.0137024  45.0811529
  72.2890091  92.0701504  46.4511490  48.6201572  94.9532604  80.2115536
  49.3386650  95.1428604  80.8148956  48.1102467  94.2736244  80.6523800
 111.0076618  12.7028489  51.0118389 110.3623390  12.5514305  50.3212786
 111.5429592  13.4259617  50.6850481  60.0199509  83.9846897  54.3439245
  59.1501999  84.1074467  53.9635372  60.6015015  84.4971371  53.7822962
  95.5213356  29.3379331  64.3897343  94.7884846  28.9341092  64.8545980
  95.1097298  29.9477720  63.7774372  55.8708572  85.4147530  85.7017326
  55.6487179  84.8859978  86.4680958  55.2135277  86.1104965  85.6920719
  40.1915503  95.5212688  63.9763594  40.9623051  95.6054688  63.4150410
  39.7413135  94.7422791  63.6497116  13.2910132  99.5773315  26.8719292
  12.8978384 100.2728748  27.3990560  14.0790915  99.3275547  27.3544002
  44.6095419  72.0178986  69.8011160  44.1313505  72.3071289  69.0240002
  44.4613314  71.0728693  69.8356009   6.7550725  29.3543673   2.2359426
   5.9538090  29.7015238   1.8439087   6.4497042  28.7080646   2.8725547
  26.4570785  89.1703606  62.0334721  27.1259832  88.7675571  61.4798021
  25.8059502  89.5055008  61.4170790  95.3265476  21.5500164  64.6887255
  95.3795147  21.4457870  65.6387568  94.9155045  22.4054432  64.5641708
   3.6796889  64.4805145   5.3924567   3.1982347  64.7604132   6.1709750
   4.0678564  65.2851391   5.0487417  98.2339764  95.2887249  84.8909760
  98.4441566  94.3800068  84.6758556  97.4975872  95.5060196  84.3193626
 102.9582882  34.1530991  26.4234543 103.4745407  33.7723780  25.7129788
 102.1900845  34.5239425  25.9892178  96.4271069  13.8131618  74.1597033
  95.6881714  14.2558515  73.7422943  96.4258671  12.9347122  73.7794924
  12.6925194  12.4902916  87.2779465  13.1734478  11.7072630  87.5459099
  12.8083801  12.5293493  86.3285828  52.8537083 106.6378593  76.0477066
  53.5958862 106.2112236  75.6194735  52.4361801 107.1465683  75.3526354
  62.5682449 103.6824608  85.2190590  61.9765997 104.3819427  84.9417114
  62.2466993 103.4253693  86.0832024  67.9175091  85.9375000  49.0948582
  68.2448292  86.1563969  48.2224035  67.7749109  84.9913979  49.0667534
  63.5306215  11.6648912  78.6748314  63.4375525  11.3879907  77.7632952
  63.8109207  10.8752596  79.1375923  67.0563889  86.4101887  76.1895370
  67.0877838  85.7737064  76.9037724  67.3792982  87.2229385  76.5786266
  72.7608967   7.2335625  60.5867863  72.5443363   8.0967283  60.9393167
  73.1864500   7.4168104  59.7491932  45.6658983  37.7544546   7.2669661
  44.9875402  37.4802446   6.6498142  46.4263201  37.2189951   7.0405298
  90.6821632  97.7363873  56.3820505  90.4525757  98.2505989  55.6080341
  89.9170685  97.8079891  56.9527674   8.4869951  13.3553898  75.7406950
   8.5361665  14.2865288  75.5243731   7.5583637  13.1388164  75.6572008
   2.1144536   4.7677872  70.5614614   3.0161020   4.5381445  70.3366804
   1.6935806   3.9290246  70.7500792  36.8656421 107.2779942  58.3997440
  37.3641372 107.6438522  57.6690722  37.5083566 106.7754936  58.9003897
  98.0525780   9.4914633  65.4502296  97.6025772  10.3359413  65.4258633
  97.3983955   8.8812143  65.7906437  98.1605434  84.4359684  62.9966545
  97.8641319  84.9205971  63.7670517  98.7588692  85.0361824  62.5517082
   0.6625780  98.7384605  50.3243589   1.0103646  98.3518124  49.5207548
   1.1973716  98.3609581  51.0227299  57.4417973  88.8336277  31.4333987
  56.9505978  88.5914993  30.6483316  58.2554007  88.3332825  31.3706923
  58.4266949  97.9866219  77.7954483  59.2453384  98.4749699  77.8824711
  58.6725760  97.0759773  77.9582167 111.5101242   7.9660982  14.9316573
 112.0572948   7.9847312  14.1464889 110.6506062   7.6849192  14.6179867
  74.9849939  97.0266342  83.0426311  75.1580811  97.8044987  82.5123596
  75.7178068  96.9877911  83.6572075  94.0432644   9.1358322  48.3921480
  93.8357353   8.8680404  47.4969101  94.8691750   8.6938387  48.5889912
  68.0745602  96.0724640  67.6729918  68.8501263  96.6313839  67.7213907
  68.3217287  95.3715420  67.0697832  51.6845131 100.0810432  54.7533083
  52.5146151 100.2980995  54.3289900  51.9381237  99.6414661  55.5649042
   7.2219741  27.6171994  31.4886522   7.1731520  27.0850253  30.6945252
   6.4410067  27.3761797  31.9868779  59.2741156  99.2069340   8.7875259
  59.2760754  99.4864941   9.7029895  60.0989819  98.7333870   8.6799425
  44.9654055  47.8153801  35.8318186  44.8258591  47.7213478  36.7741108
  45.7741404  48.3221865  35.7588601  29.4614244  94.7041798   9.2877883
  29.3521762  93.7774944   9.0743619  28.7551570  95.1438713   8.8144052
  70.0142479   1.6079667  75.0977421  69.9988413   1.4785446  76.0460281
  70.6809092   2.2805971  74.9586058  37.0929551  71.9812775   6.3916099
  36.6047573  71.1713266   6.2437093  36.5316415  72.6682949   6.0322136
  71.6770792  44.0257215   9.1665655  71.3764906  44.4306946   9.9801242
  72.1947336  44.7067261   8.7370372  99.0458775  38.7213731  82.5439739
  99.1858292  39.5128584  83.0637836  98.5398960  38.1450295  83.1167316
   7.8137392   3.4405747  76.2801123   8.2377625   4.2933148  76.1838293
   8.5337061   2.8104594  76.2512255   0.5646056  15.8971190  73.0148792
   0.1335958  15.9388828  72.1612263   0.6114952  16.8082952  73.3043480
  59.8159313 105.2065468  40.0582027  60.3562307 105.9825134  39.9092746
  60.3999376 104.4698715  39.8779726  59.8712063  84.1802979  82.0909691
  59.0301847  84.2766666  82.5377560  59.6637869  84.2922878  81.1632442
  39.1357708  94.3789291  55.2761889  39.3026423  94.8339176  56.1016417
  39.8769140  94.6151733  54.7184038 113.6120701  11.9750834  52.3894024
 113.1395721  12.7904809  52.5570488 113.9455700  12.0705926  51.4972782
  68.4665918  99.4086170  66.0706568  67.8127909  98.8664246  65.6292915
  69.2227411  98.8317204  66.1786699  78.4448576  94.1506863  79.3171787
  79.0798855  93.7295628  79.8965120  78.4527826  93.6154175  78.5236692
  70.5311060 106.4667511  59.6009731  71.2586594 106.9238377  60.0228405
  70.6089544 105.5619812  59.9035597   5.0203294  16.5501583  67.3741484
   5.4933572  15.8439958  66.9339085   5.6926107  17.2025251  67.5708389
  91.4683056  18.7052596  65.7345819  92.2992992  18.5204506  65.2969503
  90.8330917  18.7766993  65.0221014 106.2962914  26.5271115  67.8111172
 106.4249039  27.0361543  68.6114740 106.8159485  26.9846392  67.1501684
  84.8456001  40.1943016  90.6084061  84.3888760  40.9216595  91.0309982
  85.2939606  39.7445416  91.3245964  81.7122936  95.2864265  61.8803787
  81.6584587  94.8109818  62.7094078  81.1675358  96.0621738  62.0133543
  41.0065889   0.7565694  64.0544748  40.7341862   0.9314262  64.9552822
  40.1876593   0.6127274  63.5802460  47.7794456  88.8383102  47.7780437
  47.2028542  89.6023369  47.7728558  47.3263121  88.2000160  48.3289337
  76.3479710   3.3177248  68.4617758  75.4149723   3.1659338  68.3110809
  76.7281008   3.3625600  67.5844383  89.7865486  41.0166502  60.1821566
  89.1259480  40.8871317  60.8626413  89.3877029  40.6573343  59.3896675
   2.9875827  24.0671325  68.8394737   3.3268148  23.9606452  67.9507589
   3.2176521  24.9652267  69.0776539  88.1990337  10.9742916  68.8756371
  89.0905190  11.3225091  68.8604546  87.6566029  11.6901791  68.5447216
  68.4860754 100.2139568  53.5612774  67.6588154 100.0549412  53.1067562
  68.5820866  99.4670963  54.1522169  29.0030885  53.0983639   8.7912309
  28.7162685  53.8253689   8.2385772  28.6432719  53.2980299   9.6554637
  44.4747305  81.8128872  55.5023718  44.6316767  81.3320541  56.3150215
  45.1220751  81.4647102  54.8892212  37.2338820  75.9939289  68.8072443
  38.1047320  75.8741903  68.4284163  37.3225307  75.6926107  69.7114468
  39.6258092  58.2970190   8.9185333  39.8641872  58.9312267   8.2423735
  38.7217069  58.0578375   8.7145126  21.8582439  99.3647003  66.5266514
  21.0872650  98.9106464  66.1865664  22.5302315  99.2289257  65.8586454
   2.8307271  65.7564497  63.8929272   2.0011652  66.2114429  64.0379810
   2.5769204  64.8606586  63.6707258   6.4364600  17.3936081  88.8955212
   6.8470114  16.5690649  88.6351204   5.9785700  17.1863914  89.7101593
  35.3959703  60.9441710   9.7601837  35.4609108  61.8186426   9.3763655
  36.2942457  60.7232952  10.0062513  94.3907452  25.1782799  86.2968445
  93.9238167  26.0133934  86.3249397  94.4267178  24.8931456  87.2098732
  40.3086948  83.3148003  49.5634699  39.8354959  83.1556511  50.3801584
  41.2184858  83.4385777  49.8340130  95.7280445  77.1046019  65.8454180
  95.1983261  76.7150402  65.1498127  95.4679966  76.6333485  66.6369534
  93.1841755  40.9525442  75.4719210  92.7566338  40.2604008  74.9675703
  92.5111294  41.2553596  76.0814667  33.8265014  80.8583641  17.6942992
  34.3164778  80.8335781  16.8723869  32.9084635  80.8888817  17.4250317
  81.6431046   8.3349091  50.8855534  81.8949318   8.9508498  51.5736151
  81.3700104   8.8901669  50.1552486  79.0075016  12.8476608  74.2055082
  79.5399570  12.6058578  73.4477091  78.7235880  13.7433314  74.0227556
  80.7607269   7.1666300  46.8628740  81.4651585   6.5965658  46.5546036
  80.3544712   7.4995196  46.0626411  40.9213829  95.1124001  37.8209710
  40.7650995  95.2914524  38.7481952  41.6762590  94.5238781  37.8145957
  11.9554341   3.4259602  70.0091457  11.9410551   3.1777841  70.9334993
  12.4051678   2.7018338  69.5736980  68.9253950  97.9353905  57.6869678
  69.5449972  97.7910328  58.4021473  68.6870289  98.8595963  57.7594662
  94.7213078  95.8988380  76.1830711  95.5283451  95.4293251  76.3939476
  94.1144085  95.6583786  76.8831348  64.2241287 100.0363541  80.0575256
  64.1774178  99.1925907  80.5071068  64.7048569  99.8515415  79.2506886
  48.9162636  80.7134819  81.0270786  49.2854023  79.9276257  80.6240940
  49.6770144  81.2559605  81.2349415  33.3964038  83.6731243  86.1435890
  33.6509132  83.8063049  85.2305031  34.1494036  83.9790630  86.6491890
   2.3258057  11.5525758  69.8464394   2.6701403  12.3762560  69.5011616
   1.3971558  11.5653348  69.6147537  89.7267914  14.3207347  61.0150909
  90.6764507  14.3344784  61.1341858  89.3763065  14.2045474  61.8982077
  17.3499763  25.3165197  76.6182423  18.2480824  25.5952954  76.4395809
  16.8046880  25.9841967  76.2021923  84.5200443   6.9800347  35.1156402
  85.4576683   6.7970335  35.0555468  84.2799759   7.2896087  34.2422771
  91.9860554  36.0378551  74.5910025  91.0644150  36.1024570  74.3407106
  92.0582867  35.1857495  75.0210381  70.9033680  49.0386009  12.5256467
  69.9856281  49.0793657  12.2567153  71.2316656  48.2287312  12.1350479
  49.9515247 104.1902828  74.2596722  49.1092443 104.6419048  74.3129015
  49.7475767 103.2780075  74.4655514 105.3384495  91.3467407  57.0930338
 105.8253670  91.6901112  57.8421926 105.9071732  91.5128326  56.3412380
   0.2323770  12.6769066  49.5292330  -0.4822588  12.1419561  49.1837549
   0.9598398  12.5229502  48.9264631  98.6483097   9.0121257  52.3480654
  98.6653042   9.8374534  52.8326035  98.0244541   8.4662259  52.8266287
  47.1860266  85.3265095  34.9392080  47.2516489  84.6860600  34.2308688
  46.9708824  86.1489677  34.4993067 112.8665829   5.2339029  91.9015026
 112.0244694   5.2527368  91.4468288 113.2663727   4.4073194  91.6310310
 112.2049236  48.4582996  11.7981541 112.3418045  47.5429535  12.0423591
 111.5616989  48.7809610  12.4293256  14.6902096  78.3779097   1.1241721
  13.9492333  78.1029558   1.6641587  14.2913687  78.6957407   0.3141458
  29.1452718  76.6812277  91.1716175  29.2180037  77.6348066  91.2119770
  29.4890261  76.4511204  90.3084183  67.2482395  89.6706772  73.6833048
  66.3738298  90.0416470  73.8017464  67.5920820  90.1112556  72.9061985
  84.6098042  15.4158914  87.5199223  84.6467113  14.5792329  87.0563793
  83.7260723  15.4479373  87.8863049  89.7400379  29.2439866  73.7014532
  89.0660000  29.0583324  73.0476618  90.3342915  29.8550630  73.2659340
  64.7967896   0.4635498  37.3951006  64.1140494  -0.0524643  37.8238535
  64.5710954   1.3721440  37.5944996  56.7852259  79.9537230  80.7887650
  56.4932251  79.0423822  80.7682228  56.1240721  80.4284763  80.2850628
   9.1848534  10.2628875  59.2888069   9.8700029   9.6679229  58.9841461
   9.3277276  10.3292859  60.2329540 106.8861103  34.7487378   7.8691721
 107.5084877  34.0303326   7.9821640 106.4778709  34.8494339   8.7290740
  49.5974588 100.0982380  13.6020172  49.7836161 100.9262562  13.1593406
  48.6995792  99.8866367  13.3465385 106.8797684  34.4760680  70.6527758
 106.3773441  34.4686723  71.4674854 106.2179089  34.4300580  69.9628019
  18.1912696  81.0758591  58.3443403  17.5834334  81.2792778  57.6334381
  17.7944446  81.4727974  59.1197109  43.5886717  47.2148848   6.7493141
  44.2057371  46.4870358   6.6738313  43.2358742  47.3223734   5.8660179
  79.8034096  26.0214424  49.8044014  79.0917110  26.2312341  50.4091358
  79.4468117  25.3314114  49.2450047  97.3520565  84.7396660   8.8712955
  98.2353592  84.8689079   9.2167163  97.2552776  83.7893009   8.8106531
 103.9991856  92.8510571  88.0220413 104.2623138  93.6944580  87.6537228
 104.7352409  92.5916100  88.5762405 107.8205776  24.3226266  44.4018030
 107.2503376  25.0891972  44.4603825 107.9479790  24.0489149  45.3101397
  70.9660101   7.1702319  82.9677200  71.2697887   6.5505004  83.6309528
  70.0793600   6.8785423  82.7555943  44.7153568  95.5096245  74.3896151
  45.2902651  94.9732304  74.9354935  45.2879667  95.8524895  73.7034702
  56.8421984  95.5177975  63.9099216  57.5591850  95.3269482  64.5146799
  57.2466516  96.0376644  63.2153797   2.7325794  10.5067539  76.9251776
   3.3729178  10.4579008  77.6349735   2.7386254   9.6320289  76.5365219
  93.3547688   0.5197193  24.8538661  93.2907200   0.8879988  25.7350564
  93.5601330  -0.4044951  24.9948812   2.3219982   0.9956275  66.4261436
   2.0528014   0.5589771  67.2342920   2.1017446   0.3734214  65.7329035
   4.1388175  30.7519341  10.1646304   4.2229420  31.5323496  10.7124507
   4.5113567  30.0465989  10.6937325 110.7543373  25.9375691  45.1857853
 111.4286137  26.0432577  45.8569098 111.2079620  26.1114669  44.3610334
  61.5704489 103.4043884  87.9255104  61.6244936 102.8969669  88.7353420
  60.6449461 103.6366081  87.8496838  78.3015442   9.4920689  70.7161045
  77.4826384   9.9221849  70.4698896  78.4112072   9.6991068  71.6441870
 107.2313118   7.8614753  79.6976757 108.1769753   7.9292792  79.8293734
 106.8513489   8.2349706  80.4928875  95.3204727  21.3063002  52.0111752
  95.5923843  20.4042816  52.1804810  94.3644524  21.2796378  52.0503902
  28.1595945  16.6304445   5.9505284  28.7225342  16.5378666   6.7191368
  28.5164547  17.3848474   5.4817444  23.8536382  32.2582102  31.5680718
  24.3959188  31.4716530  31.6271830  24.4643831  32.9814267  31.7101359
  49.8406887 101.3943386  42.1959591  50.0488329 102.2702312  41.8708277
  50.6697083 101.0641289  42.5422525  40.2629137  92.8387070  16.4728892
  40.6170225  92.6964664  15.5950463  39.5767617  92.1776104  16.5643895
  49.4474030  53.9617205  11.0827565  49.3194437  53.3601904  10.3492594
  50.1123333  53.5388184  11.6261327  33.0293608  32.5287485   0.9703158
  33.8723516  32.1007180   1.1199387  33.2156062  33.2026339   0.3165393
  51.7922354  67.7199221   7.1190602  50.9056950  67.9802895   6.8690890
  51.8003178  66.7682838   7.0163202  62.9152155  99.9627113  89.6275139
  63.6160421  99.3445778  89.8348427  63.3562660 100.6820965  89.1756535
  80.2492809   0.7371235  65.4279947  80.1101017  -0.1094376  65.8524847
  81.1624146   0.9528118  65.6174517  81.7376328  81.2769985  87.1132946
  80.8442211  81.5849590  87.2655773  81.6897297  80.3297520  87.2424030
  23.4274006  97.0492268  87.6135063  23.0507350  97.8221989  87.1929359
  22.8270698  96.8511581  88.3322525 105.2786732  33.2752371  40.4202366
 104.5490646  33.6907125  40.8798885 105.3849411  32.4290967  40.8549595
  62.1745157  92.7858925  80.1891136  61.7739868  93.6292171  80.4003334
  61.4331341  92.2025013  80.0271320  58.2929373 100.7329941  39.5856881
  59.0298557 101.2546253  39.2677569  57.9768038 100.2679729  38.8110638
   2.3822202  12.1826160  56.5557432   3.2308277  11.8515491  56.8498373
   2.4436869  12.1841097  55.6005192  15.6385469  90.1255035  33.5409498
  15.7212615  89.5972061  34.3348575  14.9847090  90.7888317  33.7616968
  99.3682194  54.0584898  65.1060820  99.5400524  55.0000525  65.0930500
  98.8825798  53.9148712  65.9183407  57.3598814  99.9077892  49.6607590
  57.1570826 100.4454041  50.4263210  58.3099651  99.9751282  49.5656872
 113.2295799  11.5137231  69.8360586 112.8040123  12.1217895  70.4405212
 113.1385422  10.6574440  70.2540636 113.0704117 103.3818626  43.8534641
 112.3212624 103.8672447  44.1990376 113.0235291 103.5115528  42.9062510
  16.5884137  74.1115093  67.3197031  16.5327346  73.7679386  68.2113791
  16.3782573  73.3631420  66.7611170  68.5239697   6.3125592  82.0781708
  68.4721756   5.4976493  82.5776386  67.6597929   6.4026475  81.6765308
  87.0752716  12.8930604  58.7462807  87.4058533  13.7905407  58.7847090
  87.3412418  12.5766063  57.8829479 101.1079788   4.7475895  84.7899055
 100.2614021   5.1942486  84.7831249 101.0822296   4.1738847  84.0241146
   0.4001335   9.2916763  45.4517174   1.3105094   9.0088409  45.5380392
  -0.1115008   8.5621405  45.8013439  62.1960878 106.1595726  89.7250080
  62.3120260 106.8116665  90.4160595  61.2492085 106.0281849  89.6760750
  83.6612129   5.4827118  66.0710573  84.4468689   5.8240432  66.4982367
  83.5569668   4.6015739  66.4301682  68.2330418 103.6134911  92.0727348
  69.1224766 103.8369083  91.7984486  68.3484793 103.1371498  92.8949261
  80.4993057  28.5169125  79.6165180  80.5736256  29.1445422  80.3353977
  80.5540466  27.6601934  80.0399208  23.1850076  28.0657172  43.1658888
  23.3079720  28.6483407  43.9153290  22.2774076  27.7703786  43.2384968
  64.6765947 100.9562492  71.5693521  65.5008316 100.5401611  71.3168764
  64.6010923 100.7877636  72.5085783  84.7443008  85.8019543  59.7959423
  84.2891788  86.3162518  59.1291666  85.6719780  85.8975124  59.5802784
  94.2625141  24.8326254  65.6133032  93.3160019  24.9748349  65.6241465
  94.6091557  25.4809260  66.2263107  16.0305047   0.3950429  67.3751783
  15.9496379   0.9675117  66.6123056  16.7838597  -0.1616060  67.1781254
  56.7000246  33.9692378  75.0645351  55.7518244  34.0933824  75.1061773
  56.8913317  33.3480120  75.7671833 111.7085266   3.8754979  63.1346321
 112.6245785   4.1202018  63.0035067 111.2268162   4.6987239  63.0540705
  61.0250998  99.1312313  77.3885536  61.7469788  99.6493053  77.7445269
  61.4105320  98.2730675  77.2118425  84.6601009  45.0292826  67.5604153
  84.5563507  44.8338127  66.6291475  83.7745476  44.9668312  67.9183578
  47.3485422  22.9608560   7.7806884  47.2575426  22.3184419   8.4844315
  46.8210030  23.7063837   8.0672580  15.2113616  25.4331946   9.2561662
  14.2882752  25.5743504   9.4664514  15.6828475  26.0363674   9.8307222
   3.4803152  48.5500669  10.9329855   3.2464775  47.6580858  10.6762302
   2.6423955  48.9721918  11.1225402  99.5472717  88.7536335  80.5682850
  99.9020672  89.3525505  79.9112892 100.3102207  88.4736156  81.0739899
  30.6771851  56.0849237   4.3271309  31.1237407  55.9971619   3.4850398
  31.3716531  55.9842777   4.9781439  23.6032534  80.3519058  50.3053951
  23.8886881  80.4812908  49.4009495  23.0338311  79.5833445  50.2692318
  94.6609306  99.4799709  87.7570152  95.4796314  99.8605633  88.0750084
  94.6266556  99.7241116  86.8321133  10.0081635  51.6858435   1.6613594
   9.3006420  52.3156977   1.5237841  10.1591372  51.3027048   0.7972727
  58.7021208   5.5752158  46.2140846  57.8221321   5.9014833  46.4022493
  58.8868570   4.9610192  46.9246292 111.2153625  25.0111246  81.0908508
 111.4565468  25.7375479  81.6656303 110.2626228  24.9542594  81.1636353
  57.6040268  87.0656967  68.5385895  56.9765997  87.7874184  68.4974051
  57.2207117  86.4504814  69.1637421  98.9435291   6.4344674  84.2669678
  98.6036301   6.6124129  85.1439190  98.3264160   6.8689102  83.6781883
  80.8805370  12.9518259  43.7596083  80.7154274  12.0717454  44.0978765
  80.3006649  13.5172200  44.2698145  80.2302361   7.8247041  36.9824624
  80.7823849   8.3560777  37.5560522  79.7607517   7.2394657  37.5768661
  26.5331912  72.5223732   5.5221844  27.2256255  71.8669748   5.6071502
  26.5530491  72.7734375   4.5987096 102.0265961  11.5512395  84.1647339
 102.0241833  12.3752356  83.6776447 101.2912273  11.0568607  83.8027096
  85.8726692  83.7243748  45.3690672  85.2481747  84.4109821  45.6031656
  85.3266335  82.9835892  45.1057959  69.1784620  93.6442566  85.5041027
  68.5456324  93.3853436  86.1739731  69.5101738  94.4910908  85.8025455
  82.6552868  83.1111145  82.1251869  82.7868271  83.1135941  83.0733013
  81.8533039  83.6167526  81.9933224 103.4700966  11.6091013  57.0410824
 103.9590931  11.7221677  56.2260199 103.7668037  10.7658839  57.3833990
  52.0261478 104.7060680  84.8632336  52.4672031 104.1833878  84.1935253
  52.6554441 104.7535610  85.5829239  51.5893888  93.3777046  78.7040806
  50.9698677  92.7881908  79.1340828  52.0384312  92.8269291  78.0628014
  52.7602053  13.4752071  31.6177320  52.3856258  13.6113238  30.7474470
  52.3440695  12.6736701  31.9349098  25.1119876  49.5779419   5.5720085
  25.0676870  49.0671206   6.3802981  25.8119130  50.2121019   5.7275057
  53.5231781  96.6194153  73.4436274  53.4865570  95.8514690  72.8734016
  53.5433578  96.2587738  74.3300629  26.4309406  86.6238689   5.5915433
  26.8097591  87.4783230   5.7980168  26.0688162  86.3153839   6.4221674
  98.1354809  10.1473701  89.1103554  97.2447777   9.8373246  89.2739201
  98.0276966  11.0655344  88.8621807  78.0314493  12.8208911  53.2482910
  77.5368404  12.0306289  53.4652710  78.6978054  12.5238109  52.6286650
  18.5112751  16.7873406   2.2005995  17.6231706  17.1407568   2.2515722
  18.4024954  15.8458948   2.3350520 109.0728569  37.1691442   0.7182532
 109.6513176  36.6177392   0.1914085 109.5842457  37.9605842   0.8865726
  88.5641479  87.6076031  66.3763094  88.8464832  86.7000198  66.2631083
  88.4499264  87.7067947  67.3214817  84.1434002  31.7139387  83.5087776
  84.9158573  32.1912551  83.8115978  83.7690926  32.2719073  82.8270245
  11.7786407  79.2671394   7.4689084  12.3477399  79.4652939   8.2126105
  12.1681392  78.4891272   7.0698822  31.9162297  47.1762085   5.2693576
  30.9964228  47.2465038   5.0139230  31.9492126  47.5484943   6.1505771
 106.6020584   3.0825830  37.0895648 106.1491585   3.9091900  37.2563839
 106.1683750   2.7238655  36.3153100 103.1325054  26.7274404  45.1399088
 102.2281075  26.8985081  45.4026556 103.0556965  26.1654067  44.3689060
  95.2667427   4.6658960  71.6019726  95.2993298   3.9316744  72.2152328
  94.8648167   5.3770530  72.1009207  95.2640343  72.6870871  63.8739538
  95.0381756  71.9736958  64.4708538  94.4414616  72.9001570  63.4332705
  98.5576820  70.1985359  42.4096632  98.4844971  69.8582315  41.5179968
  98.4898376  69.4239807  42.9679585  41.8559551 103.4960079  33.0932379
  41.3524818 103.9663696  32.4287796  41.2153339 102.9285526  33.5219908
 112.0000839   4.5369709  76.7745972 112.4007702   3.6857259  76.5983534
 112.1584511   5.0455081  75.9792757  12.5968087   3.7078819  85.5307770
  12.8789341   2.8515610  85.2092934  12.7567947   4.3032262  84.7985172
 110.0797272  43.0933952   6.8339986 109.8489857  42.6196671   6.0348898
 110.8998489  43.5383415   6.6203177 106.1021519   0.2719219  62.5598383
 106.4410782   0.7277337  61.7893887 105.1713657   0.4943509  62.5795412
  91.6011238   5.1358539  60.6996775  91.7281437   4.3008518  61.1500883
  91.5304184   4.9006251  59.7745275  11.7906404  30.2621508  72.9310608
  11.7717814  29.3126464  72.8114080  12.7060533  30.4605722  73.1282425
  45.5333519 106.7592049  61.0247898  46.1521769 106.6659355  60.3005028
  44.7400045 107.1082115  60.6185579  80.4244232  96.8810081  50.9234858
  79.5055151  97.0060635  50.6864214  80.5976200  95.9591007  50.7329130
  18.0947757  51.4660454   7.9831636  18.3228505  51.7958832   8.8523126
  17.1590137  51.6476631   7.8960174  73.6230850  38.6927772  82.8353596
  72.8540230  38.2414699  83.1833553  73.4950590  38.6875081  81.8867779
  70.0928450  87.3126984  90.0060844  70.6590462  87.4214268  90.7701683
  69.6345425  86.4871502  90.1631165  30.0320554  17.3947227  88.3798313
  30.7344246  16.7711151  88.1953812  30.4858112  18.1974792  88.6365891
   7.6545763   6.5555316  84.2187023   6.8378961   6.9415063  84.5353889
   7.9533947   6.0019118  84.9401283  23.1554198  11.9596744  67.6052380
  22.9596519  12.3240423  66.7420197  24.1030574  12.0581841  67.6974964
  43.0168629  26.8488765   3.5742170  42.4135923  27.0760727   2.8666300
  43.2454681  25.9340739   3.4095848  30.7328892   5.8942580  50.8728456
  30.2943754   5.0590926  50.7102489  30.6112051   6.0503304  51.8093634
  79.5033503  19.3121874  70.1534843  80.4317951  19.1255999  70.2928019
  79.4897032  20.1924968  69.7778511 109.5845604  60.6526518  61.1653137
 110.0625992  61.4814806  61.1926699 109.0580177  60.7060623  60.3677320
  99.0775871   9.6032679  73.3313847  99.2581081   8.7251937  73.6669922
  98.8664055   9.4678879  72.4076414 105.0220680  13.7070358  38.5836530
 105.2208424  14.4401300  38.0011678 105.5937576  13.8400578  39.3397617
  15.3777301  32.3093247  51.3282204  15.0081193  32.5946808  50.4926443
  15.2112830  33.0387139  51.9253111 109.6766090  75.1083946  51.8085337
 110.3335190  74.9059677  52.4746561 110.1857185  75.3077412  51.0228586
  19.9215484  23.9609432  52.0154381  19.6981525  24.8386431  52.3252249
  20.6182384  23.6694789  52.6035738  89.0042114  92.1924496  74.5624495
  88.4082603  92.8376293  74.9429989  89.8688412  92.5981236  74.6262836
   2.5910035  33.7426519  53.8007164   3.0552790  33.6985230  52.9648161
   3.2791457  33.6636567  54.4613647   5.9978640  22.9153585  49.4580841
   5.8100361  22.8103995  50.3907871   6.8502295  23.3501792  49.4328642
  64.5754576 100.0785732  36.3371992  65.4245806  99.6977043  36.1132360
  64.7424507 101.0193825  36.3940644  64.6478796  93.6780643  73.3743334
  64.4652700  94.4951439  72.9103613  65.0537491  93.9547062  74.1959000
  78.8278103 101.2561607  86.7181396  78.8531303 101.6823387  85.8614254
  78.5741186 100.3528023  86.5288639  10.7990229  10.3914058  62.9045343
  11.3277459   9.6599150  63.2232904  10.5084252  10.8406436  63.6982393
  19.1676700  66.7477846  14.0123618  19.6237743  66.2733507  13.3172989
  18.3522296  67.0418453  13.6063862  92.5374889 107.1217251  84.4363308
  91.7466736 106.5833282  84.4674301  92.2851658 107.8884411  83.9218330
  82.1997166 102.2786617  72.5448132  81.5290356 102.7659607  73.0233145
  82.8383827 102.0307636  73.2133102  59.8751688  28.5248256  36.1924267
  59.3658686  28.2224989  35.4404664  60.2358103  29.3668151  35.9145284
  85.6967449  29.1261911  89.5185280  86.0254765  29.1839242  88.6214066
  86.4843941  29.0604448  90.0584602   6.5559131  10.2277482  54.4437790
   5.7696825   9.8404312  54.0589952   6.8061447   9.6202034  55.1398420
  94.0420341  15.5038512  66.8531132  93.8955498  14.5595872  66.7970753
  93.2170391  15.8547235  67.1885252  82.7291203 103.2438278  55.6407642
  82.8504753 102.9923058  54.7252083  81.8203926 103.5406685  55.6891775
  53.8787603  16.8823433   2.0818114  53.0881119  17.1568370   1.6173097
  54.3071842  17.7014816   2.3301949  93.1210518  32.8336716  52.9413891
  93.0212879  31.9990301  52.4835110  93.1737232  33.4855103  52.2424173
 111.6684532  29.9770999  76.2346268 112.4125576  30.5659199  76.1087990
 111.5222740  29.9746251  77.1805954  30.8866143  90.5952072  83.1876659
  30.5421925  90.8464336  84.0446949  30.4189706  91.1552334  82.5680637
  14.4842422   7.6582694  79.7197676  13.7541890   7.0405877  79.7612762
  15.1647472   7.2616774  80.2637005  83.3271599  70.1538801  89.7255993
  82.7839375  69.4027042  89.4871235  84.2064953  69.9166775  89.4310856
  51.9248199  88.9955807  70.4570293  51.8332148  89.1881466  69.5238876
  52.7456093  88.5073185  70.5213833  99.4800091  87.7663040  67.9032898
  99.6222115  87.0432568  67.2923851 100.1456261  87.6425743  68.5799551
  31.9232965  63.5917330  26.5652370  31.2934136  63.0255032  27.0111775
  32.5511384  62.9869080  26.1699700  83.3658218  20.2592206  90.5814838
  84.2695808  20.4064488  90.3026104  83.4440708  19.7511935  91.3889599
  98.1516075   8.8136798  61.4776659  97.7252388   8.3281684  62.1838713
  98.0770111   9.7314930  61.7389870  55.4198170  12.5112522  31.4720941
  55.3718805  11.9117320  32.2167468  54.5568466  12.9242373  31.4411569
  70.5087376  98.4720421  73.7931442  70.5231905  97.5882530  74.1604853
  69.8533201  98.9369202  74.3132830 105.9518909   3.5255381  60.7606411
 106.6808319   3.7255704  61.3478851 106.1875629   2.6872247  60.3632498
   1.1236739  34.0663147  57.8909922   0.7686673  34.8413181  58.3263922
   0.4452367  33.3996034  57.9980040  47.3929548  47.6078320   6.7249906
  47.7170229  47.4274921   7.6074243  46.4785242  47.3254871   6.7433006
  54.9556160 103.7525368  91.2716484  55.6328773 103.2041359  91.6676331
  54.1741991 103.1997681  91.2636185  34.2896438   8.8938248  69.7964287
  34.4795704   8.8694739  68.8585758  33.8441324   9.7306007  69.9289322
  45.9625530 104.7486305  88.7699509  45.6130743 103.8664055  88.6443520
  45.3636312 105.3150177  88.2834053  80.3499222   8.0140203  75.3082275
  79.6390152   8.6506963  75.3822803  81.0042477   8.3109891  75.9406042
  36.1484647  49.2991161  12.5519288  36.8934250  49.8435926  12.8065097
  35.5515623  49.9019909  12.1086705  28.1827807  19.6521676  53.7157583
  27.5255466  19.2187238  53.1713343  29.0202999  19.3976080  53.3284712
  93.7566376  98.9063644  80.2057362  93.8126850  98.9946747  79.2542696
  94.2261600  98.0949402  80.3990459  33.1798291  11.7027116  76.6140652
  33.7788510  11.5914202  77.3523188  32.7064490  10.8723640  76.5624523
  74.1439724  98.7247753  77.4613428  74.3826342  97.8818989  77.0755625
  73.2334375  98.6137486  77.7348995  84.0924740  71.1749601   4.6801764
  83.4555817  70.6825495   5.1979858  84.8791885  71.1959457   5.2250308
  22.0421839  42.9751158  60.5198860  21.2847638  42.3935413  60.4542017
  21.7054772  43.8359308  60.2711630  88.7288857  37.8479743  19.3209326
  89.5968246  38.1754470  19.0850055  88.3132458  37.6456547  18.4827554
  15.3934491   1.2224245  70.0265312  14.5269001   1.3065685  69.6287346
  15.9942639   1.1708996  69.2831612  96.0834217  35.6013250  71.7423058
  95.7507992  34.9740767  71.1003160  95.3076267  35.8806252  72.2284794
   5.3062516   0.8661381  78.8276815   4.5906314   0.2711493  79.0515327
   5.0412709   1.2568966  77.9950237  38.8282108   6.1623955  59.8165512
  39.7606850   6.3772607  59.7929716  38.8033271   5.2238429  60.0029182
  91.6789913  93.5844231  61.3713169  92.5013733  94.0564346  61.2404490
  91.0874748  94.2344666  61.7505121  14.3275023  34.1523647  33.3592725
  13.9178395  33.3293176  33.0928063  13.6739409  34.8217654  33.1568146
 110.1448536   6.3888013  87.4898624 110.2255440   5.5654705  87.0083523
 110.1626873   7.0650488  86.8126583 102.3246193  17.2699356  63.0610323
 102.5171566  17.0507288  63.9726830 101.8726826  18.1124449  63.1075811
   4.9101651  32.0573878  87.2171402   4.0362635  32.4437284  87.1599579
   5.4337347  32.7158642  87.6737690  91.6655922  11.6857493  88.1395817
  91.4812374  10.7468891  88.1115818  92.3795128  11.8084121  87.5138760
 109.1152763  36.4250898  60.0901365 108.9437580  36.2673378  59.1617346
 109.5322227  35.6199121  60.3968620   0.5476470  19.9193561  22.8982544
  -0.1196900  19.4290543  22.4181533   0.1431737  20.1083803  23.7449551
  30.3704572  34.8259783  40.4823780  31.2218928  34.3969798  40.5675173
  29.8968363  34.2935586  39.8432827  56.1727252  13.8198570  93.2651862
  55.7903877  14.5297579  92.7493444  56.1979499  13.0744938  92.6651607
  61.4230776 101.2747955  27.8790545  60.4850245 101.2931633  28.0686593
  61.6787243 100.3636646  28.0230045   5.7049137   9.2009193  36.7842317
   6.2814945   9.9647772  36.8017817   5.5143017   9.0659899  35.8559585
  16.0095787  38.7390947  40.9745026  15.8355260  38.2452369  40.1732254
  15.3518045  39.4344807  40.9749079  86.5811443  99.5918655  40.9702301
  86.2426186  99.3297863  41.8263531  87.4665642  99.9083424  41.1494350
  16.8715930  20.8877015  87.4175262  16.9442022  21.4117813  88.2152081
  17.4470973  21.3253188  86.7902184  99.8203850  37.9277945  15.1194799
 100.2503586  37.0726895  15.1315725  98.9402390  37.7580833  15.4552925
  12.1623802   0.1390851  42.1301079  11.4722943   0.2686268  42.7806711
  11.8286526   0.5627952  41.3393307  26.9079709  13.2639039  71.1033344
  26.3200212  13.8864195  70.6755257  27.3979282  13.7917078  71.7338896
  82.0197773  69.2399836  68.5355568  82.3603153  68.4668875  68.0854559
  82.7945042  69.6607208  68.9083958  43.3067799  54.3953276  42.5154305
  43.8448858  54.9206877  41.9232512  42.8758478  55.0368881  43.0801678
  97.4091434  99.4136238  79.9417830  97.1365929 100.3126812  79.7583485
  97.6748371  99.4267750  80.8612728  93.9932346  12.1351385  46.1840630
  93.5098743  12.8643847  46.5723944  93.7423515  12.1463382  45.2603912
  74.0274477  65.0987673   0.5876805  74.0604591  65.5937958  -0.2309089
  74.9453259  64.9492836   0.8143630  53.7032080  97.2772789  39.2689204
  54.5524025  97.1083260  39.6770287  53.3757782  98.0597878  39.7124290
  23.7903666  27.4020457  75.0756216  22.9556537  27.8238750  75.2794600
  23.9975524  27.6970172  74.1888905  86.4049721  68.8392878  71.7109871
  86.4727306  69.3596554  72.5115252  87.2639656  68.9235115  71.2971497
  14.6469891  26.8620396  37.1005654  15.2930796  27.5653195  37.0357728
  14.7333157  26.5393877  37.9976010  11.5863788  43.4493113  63.2232475
  10.7584953  43.9132214  63.3482504  11.9225883  43.3162928  64.1095352
  22.2193885   7.9856098  45.7792711  21.2780166   7.9909182  45.9525394
  22.6064229   8.4083307  46.5459156  66.9009018  98.9576912  38.7824893
  66.6342640  98.0860233  39.0746260  67.8438520  98.8830948  38.6358118
  17.0493960  43.8625717  63.7811947  16.6640699  43.6870623  62.9227352
  16.4509308  44.4885445  64.1889048  67.3220110  41.0398674  82.9684734
  67.5697994  41.9073200  82.6485348  66.8470478  40.6421280  82.2387791
  82.0623589 105.6481743  25.1978517  82.6463795 105.2746964  25.8579016
  82.2810268 106.5799618  25.1842690  79.6409464  91.2316036  60.1856756
  80.3267384  90.5805969  60.0369835  79.8998165  91.9794464  59.6472120
   3.2468373   5.3246009  42.1646833   2.9179204   5.9503919  41.5193701
   2.5043684   4.7455159  42.3368263  89.4472027  91.1134815  56.0866404
  89.1281223  90.8630466  55.2196312  89.1535282  92.0176888  56.1979675
  16.0210156  20.1333237  59.0966463  16.7199254  19.4820666  59.1568184
  16.4792597  20.9684801  59.0030527  25.9087157   9.9141377  37.8566599
  24.9815202   9.7101271  37.7345252  26.2437987   9.1946679  38.3917427
 112.3841667  15.7699597  26.3070488 111.8266869  16.3244355  26.8529415
 112.4535275  16.2427676  25.4776669   7.6665515  44.9163771  65.6322718
   6.8899202  45.3073263  66.0325670   8.3721596  45.0952244  66.2538528
  13.6484647   9.2590529  36.7040300  13.8910568   9.2608386  37.6299787
  14.2570102   8.6416399  36.2981915 103.3944035  47.8433180  38.3172345
 103.5654163  47.2024345  37.6271224 104.1928005  48.3697224  38.3584332
  13.0500269  33.7161446  61.5991068  13.3553314  33.7927270  62.5030708
  13.7326288  33.2106638  61.1577702  14.0360761  22.2272062  42.5602961
  14.4067109  22.7670193  43.2584858  14.3055391  21.3350534  42.7786636
  15.8956254  27.0067763  79.9056625  15.9228158  27.3383236  79.0081263
  15.2512133  27.5607467  80.3462124  21.4334679  73.8460445   9.5322734
  22.3732305  73.7512255   9.6874666  21.3380504  74.7274256   9.1713089
 112.0323372   1.8455009  66.7585373 111.6086674   2.6959479  66.8746042
 111.4953327   1.2388346  67.2682619 109.9306870  34.1535544  70.8560228
 109.9646950  33.6618137  71.6765499 109.0245342  34.4559646  70.7954121
  76.3871002  67.9497766  69.5425558  76.6794014  67.2531891  70.1304007
  76.6090059  67.6330948  68.6669445  94.7480583  97.6281071  47.3872900
  95.2090836  96.9380760  47.8643227  93.8206673  97.4435616  47.5360298
  18.3372426  45.2809000  45.1540804  17.6778519  44.7176266  44.7489119
  18.8608789  44.6875668  45.6925917  85.6728077 105.6217098  34.6303916
  85.0008869 106.2954998  34.5266509  85.2535629 104.9452591  35.1622581
   4.7387356  34.7894359  32.3539400   4.5811385  33.8581228  32.1988559
   5.6806242  34.8981023  32.2225285  22.0748377  46.3212633  84.5279884
  21.2639570  45.8210707  84.4357204  21.9166827  46.8981457  85.2752686
  24.3848491  24.5093751  52.4872828  24.6356297  23.6652422  52.1120787
  23.6710572  24.3009973  53.0900335  15.6536257  16.4185750  44.1361427
  16.4721847  16.5386713  43.6547184  15.1101279  15.8860409  43.5554123
  99.6536350 103.8628769  59.6773481  99.7907352 102.9987526  60.0655699
  99.9972630 103.7829494  58.7875366  69.5526552  95.1540661  41.9688654
  69.8491096  95.8962250  42.4957037  70.1544619  95.1329517  41.2248135
  23.0036640   6.1038244  59.5954847  23.6262774   5.8730060  60.2849102
  23.4663773   5.9101689  58.7802362  75.5157757 104.7786045  54.8478079
  75.7756042 104.2024231  55.5666494  75.4070425 105.6373215  55.2564812
  22.6516747  11.4174926  52.3884630  23.1555724  12.2059405  52.5901270
  22.3263860  11.1175179  53.2372475  29.3504000  16.9941509  48.2366228
  28.4091687  17.0519412  48.0723810  29.7369504  17.6389682  47.6441526
 105.0759792  23.1780648  37.7463365 104.9318981  22.9813838  38.6719656
 105.8737469  23.7069178  37.7352095   3.5977319  19.5374286  50.2355289
   3.8959235  19.9535334  49.4267178   2.6426229  19.5507634  50.1737118
 107.6855564  15.0613105  54.9237967 106.8377686  14.9939001  55.3630352
 108.2591343  15.4705000  55.5717230  20.5772328  38.8167763  28.9659500
  21.1548185  39.5797658  28.9441776  20.4782319  38.6178112  29.8969936
   6.5472370  21.5587234  33.4381604   6.7882007  21.0134983  34.1870904
   6.8521398  21.0667443  32.6757789  99.3494987  95.9581280  50.6764078
 100.3060246  95.9455681  50.7100630  99.1275120  95.3705120  49.9541426
  28.6990166  10.0297785  47.8332424  29.0891004   9.3574643  48.3918667
  29.3754244  10.2241683  47.1844578  59.4295025  93.5025692   4.1244966
  60.2312660  94.0253353   4.1133034  59.4125032  93.0717945   3.2698774
  37.8526306  27.1140862  66.1659956  38.2189488  27.1474266  65.2822924
  37.8890610  28.0194139  66.4746809  89.0098953  31.2695289  49.8714399
  89.1973591  30.9598732  50.7575560  88.4162998  32.0098734  49.9970055
  26.1111665  42.1809721  87.3507977  26.0681367  42.9388428  86.7676830
  26.7871523  41.6220140  86.9676018  64.9278975  63.9671230  90.2183342
  65.0271606  63.6833286  91.1270905  64.4268990  64.7807837  90.2748775
  40.8574247   8.9891142  54.8549032  39.9467802   9.2652994  54.9582481
  41.3001871   9.3277186  55.6330633  93.5914135  98.6893559  56.9827890
  92.6489830  98.8310337  56.8933964  93.9557076  99.5670128  57.0978117
  17.5769484  29.3774486  34.5007992  18.4982336  29.1178203  34.4931412
  17.4656069  29.8890305  33.6994767   9.0547603  38.4661913  56.8934822
   9.4260108  38.6607623  57.7540350   8.4694612  39.2018342  56.7132473
 112.1119213  17.1106231  52.9547739 111.4648724  17.5300610  53.5219002
 112.8722477  17.6911342  52.9886580  45.3565693  71.1384821   0.2666599
  45.4217148  71.8465614  -0.3741282  45.9130716  71.4204741   0.9926207
  66.1740875  91.0469818  37.2918510  66.3907623  90.1159573  37.3415327
  65.2510166  91.0917091  37.5412083  98.3874989  24.2826581  54.2011452
  98.4298897  24.5931578  53.2966948  98.0138111  25.0165105  54.6890450
 107.0687199  20.7690358  13.6951506 106.5616894  21.5712762  13.5703671
 106.4098454  20.0793552  13.7755370  80.6917667 101.1139011  39.7831702
  80.8337975 100.1861954  39.5949531  79.8756170 101.1346912  40.2828789
  90.8612156 102.4299240  52.8344297  90.2048111 103.0980396  52.6369667
  90.7180214 101.7511654  52.1748829  15.1534104  26.1046815  34.2559195
  15.0238371  26.2713838  35.1895428  15.5206740  25.2215123  34.2190242
  18.1797802  28.6203074  63.2724237  19.0514076  28.2451010  63.3977985
  17.5878894  27.8690004  63.3103275  36.3292050  13.6332762  39.0563703
  36.9931364  14.2422783  38.7330413  35.8294702  13.3881867  38.2776356
  43.1227446  56.8814898  49.2764616  43.5499477  57.6780033  49.5915699
  43.5743189  56.6752195  48.4580708  36.2184215  13.4535944  47.4494362
  36.8417859  13.1889474  46.7729664  36.4580441  14.3570697  47.6557016
  51.8295336  19.0718722  24.8384285  52.4416637  19.7557652  25.1101255
  51.1168528  19.5451176  24.4090629  87.4918938 100.7275391  48.8177490
  86.8528938 101.3588142  48.4869957  87.3987007 100.7686996  49.7695112
  32.7189136  15.2909195  72.8559446  32.4228477  15.6195962  72.0070934
  32.1371984  14.5543158  73.0437040   8.3297354  38.5512090  83.4701538
   8.6358517  37.6856852  83.7410545   7.6075870  38.7474895  84.0669823
  76.1658239 103.2864952  56.9872761  76.9365883 103.6737347  57.4022436
  76.3584518 102.3495579  56.9513416  32.6729846   8.0090225  57.1121645
  33.2741642   8.2425773  57.8194618  32.8700614   8.6337465  56.4142323
 105.3294563  33.3603024  52.2548437 105.9618187  33.9378047  51.8272495
 104.5063591  33.5236454  51.7943382  36.8116117  30.7959509  26.9221544
  36.1147761  30.5148959  27.5151634  37.4478412  31.2313199  27.4895144
  66.4681149 101.2903404  75.1887655  66.4643526 100.4858494  74.6701002
  66.8354034 101.9516945  74.6023083  70.7368517  81.0028744  76.8348169
  70.3176260  80.7842255  76.0025454  70.8018541  81.9578266  76.8266630
  45.4913092  91.6776562  42.2242117  45.4118299  92.3905468  41.5904140
  44.8746681  91.0134888  41.9162130 111.6353226  16.1290121  68.2277727
 112.2352409  16.3223934  67.5074053 110.9873390  16.8327868  68.1953144
   8.0963558   5.3134328  49.4809437   7.7832383   6.0646313  49.9848175
   7.8825045   5.5281311  48.5729790  16.4418709   2.5934121  86.6346550
  16.6031885   2.3467427  87.5453472  15.7986927   1.9560875  86.3242149
  17.9991293  18.5857379   9.1513342  17.8019369  17.6519132   9.0784103
  17.3143721  19.0158415   8.6391342 106.3686943  87.0300007  82.8541183
 106.0037422  86.5394688  83.5906029 105.9084702  86.6886139  82.0873833
  22.9488468  11.1371911  36.4025021  23.1912088  10.7145703  37.2264457
  22.7191520  12.0325589  36.6510749  11.9542146  16.8120921  33.7029314
  11.8717837  16.0979486  33.0709219  11.2281942  17.4004233  33.4955835
  47.7934790   1.9069357  71.8947840  46.8849707   2.1858433  72.0090485
  47.9333258   1.9283041  70.9480953   1.8754008 105.5679417  48.1309509
   1.3497029 106.3029766  47.8153801   2.7520955 105.7343578  47.7846241
  26.0809374  21.2306881  71.0182381  26.0173869  21.2504745  70.0633526
  26.9495797  20.8685493  71.1930132 112.4265575 101.6438866  75.7396746
 112.7282143 102.4813080  76.0917521 112.8909969 101.5526104  74.9076939
  22.1953130  14.3526018  85.5265427  22.4982691  15.0119019  84.9022293
  22.5045753  14.6671772  86.3760376  64.2300892  96.9058990  76.5427971
  64.0626192  97.6615620  75.9796238  64.6312618  97.2770691  77.3286247
  42.4295950  12.2312391  38.1001353  43.2324409  12.5988400  38.4696484
  41.8261337  12.9727650  38.0531478  43.1083727  25.4624748  65.0992250
  42.9758453  26.3226986  65.4975700  42.9349566  25.6004572  64.1680288
  46.9658852 102.8236198  40.3843832  46.4060450 103.3575535  39.8207068
  46.9199944 101.9458961  40.0052786  89.6880722  32.7767515  41.5602112
  89.3180943  32.7572703  40.6776190  88.9573288  33.0380726  42.1205282
   5.5235827  32.5279617  60.8243513   4.6854800  32.6671410  61.2653112
   6.0968822  32.1758366  61.5052080 106.3754272  95.5406761  82.1538830
 105.5823517  95.7480049  81.6596413 106.2452888  94.6392727  82.4484444
   6.8195087  35.6743193  50.2478886   6.9999641  35.6100988  49.3100500
   7.1120447  34.8362303  50.6060219   8.2599992  48.1469488  42.1476793
   7.6634246  48.4843206  42.8158951   8.5337639  48.9222431  41.6575718
   1.2319748  29.4794202  34.0058422   1.7547947  28.8171864  34.4578791
   0.7677038  29.9373674  34.7065353  97.4037743  88.8484955  27.1094227
  98.0671024  88.4546757  26.5427399  97.8066158  89.6582890  27.4227595
 113.0233097  30.1121330  16.7975652 112.5167465  30.7664561  17.2786915
 113.5499954  30.6220627  16.1820924  26.3169861  23.2479143  49.2728519
  26.2312675  22.3143554  49.0795803  25.5702686  23.6533093  48.8320541
  21.9175482  25.0312781  49.0099001  21.3156509  25.6698465  49.3922377
  21.3952589  24.5749545  48.3501911  26.1487103  41.5178776  46.4786243
  25.8175755  40.6520605  46.7172480  25.3721833  42.0774984  46.4707899
  89.2586899  94.4321060  40.1803255  89.8460770  94.2935085  39.4373631
  89.3263531  93.6264324  40.6927061 106.8151760   7.5083727  83.5777569
 106.6406727   8.4266311  83.3714008 106.0291004   7.0445174  83.2893944
  16.7380250   1.3233234  47.6659822  17.1053815   0.5019784  47.9925919
  16.8767333   1.2881358  46.7195415  11.8540537   5.0688642  34.7144508
  11.3507819   5.6359094  34.1301465  12.7238107   5.0269115  34.3169641
  30.4747128  17.7228117  71.5851879  31.1771441  17.2710264  71.1175203
  30.9283829  18.2946849  72.2043657  24.6267700  37.0740485   7.9407012
  24.8533344  37.9976487   7.8317821  24.7974610  36.8929529   8.8649851
  20.8052778  53.4769678  55.7800817  21.4502883  53.9767027  56.2805367
  21.3209772  52.8178358  55.3155041  81.9276905  98.7439156  38.3265996
  82.6461220  98.7728214  37.6947308  81.9755268  97.8653908  38.7036204
   9.1229212  24.2679906  33.7238407   9.8797333  24.8276711  33.8976955
   9.2921585  23.8987565  32.8570890  11.9609809  53.5424089  46.9769001
  12.5193548  52.8466606  46.6299438  11.2668502  53.6399174  46.3250542
 109.8731327  37.3559761  42.1222115 110.6230354  37.2042775  41.5469980
 109.5952797  36.4798832  42.3895884  27.7928686  70.2219343  67.5923347
  27.1790814  69.5548153  67.2850084  28.6570907  69.8640490  67.3891735
  45.0451326  28.8378978  28.5342169  44.5822763  28.0559969  28.8352513
  44.8430634  29.5037770  29.1914868  10.1583171   8.3375108  51.2901688
  10.5201793   8.6422676  52.1222830   9.5163858   9.0054095  51.0491943
  21.7233372   4.7585511  25.3471875  22.4631143   5.2720457  25.6716657
  21.7877626   4.8214442  24.3942308 101.1616802  87.4399853  57.3522043
 101.1610031  87.0974159  56.4584064 101.8697548  88.0840206  57.3613262
  27.8427362  44.8590136  31.6973591  26.9608498  44.5411158  31.5038443
  28.2700205  44.9151373  30.8426619  39.5089984  37.5185490  67.5868130
  38.8459444  37.8563547  68.1888723  39.8406291  38.2948947  67.1356535
  15.1565909  14.7598970  40.4953671  14.4738531  15.4306614  40.5085945
  15.0647008  14.3080366  41.3341856  80.4100704 102.2109699  91.9056988
  79.5761538 102.4165630  91.4831543  80.8152103 103.0637074  92.0636177
  97.5577641  87.9962540  56.2058544  97.0593548  87.1870899  56.0915375
  98.3142853  87.7391434  56.7329216  21.9282579  28.1741571  61.0033512
  21.1928153  28.2115960  61.6148663  22.5558591  27.5831914  61.4194155
  18.7961030  29.4707227  41.8366861  19.3013728  30.1611686  41.4074802
  19.1478097  28.6569285  41.4757538  58.5085964  20.3368139  68.2193947
  58.4105062  20.5216527  69.1534424  57.7898264  19.7379565  68.0169725
  15.9753621  35.3658032  41.1528683  15.2426696  35.1798725  40.5656528
  16.4481997  36.0808015  40.7269192  43.6508656  41.3279343  71.2546968
  43.3999348  40.6297016  70.6499386  42.9928112  41.2915277  71.9488668
  11.0879433  36.7121625  59.2217207  10.3238058  36.4796472  59.7492266
  11.0501361  36.1194277  58.4710741   3.0799642  38.3630729  33.9343548
   2.2828797  37.8334451  33.9539433   2.8053880  39.1949081  33.5484934
  17.4956679  80.4697800  37.6040030  16.7737699  80.5511475  36.9807267
  17.4092484  79.5839691  37.9562879  89.9581814   7.1054262  41.8353319
  90.6819439   6.5038210  42.0098591  89.6363640   7.3509771  42.7027225
  26.6757226  34.8353648  69.7008896  26.9682145  33.9286041  69.6088791
  26.8293953  35.2251029  68.8402367  23.4490514   6.1915165  79.7723722
  24.3718052   6.0360235  79.5709324  22.9918194   5.4391217  79.3967772
  25.5595398   8.4562069  50.9478903  25.6693411   7.6976562  50.3745031
  26.3442850   8.4577310  51.4959860 101.2481022  96.6778469  39.7281599
 101.9825172  96.9764900  39.1918015 101.3063622  95.7227421  39.7035670
  24.1572165  43.1209517  45.2319479  24.1885209  44.0624142  45.0619411
  23.2238030  42.9214764  45.3039455  11.1745632  23.1521535  20.3870964
  10.5444407  23.7549973  19.9924386  10.9817243  22.3059678  19.9833429
  23.4459710  47.4003077  79.8799658  22.7541995  46.8467379  80.2422428
  23.2041383  48.2884693  80.1424980  49.0311623  80.3273010  72.3063660
  49.9791241  80.3742313  72.1822977  48.6700439  80.4010296  71.4229727
  33.5582185  62.7214050  42.4634743  33.9281583  63.4459782  42.9678249
  34.3193769  62.2207069  42.1699286  14.8144591  59.2852974  27.2710228
  15.4001975  59.6340036  27.9429936  15.3761387  59.1575336  26.5065455
  16.3930321  13.9199722  64.9414539  16.2196577  13.0604863  64.5574522
  16.6309214  13.7329948  65.8495760  12.6877654  18.7115717  41.7883110
  13.5020769  18.8764465  42.2636509  12.0488703  19.2946577  42.1982574
  52.4382019  34.7750783  38.0530906  51.5661097  34.8505092  37.6657987
  52.8865242  34.1273069  37.5093675  52.6609325  32.9575610  59.6706820
  53.3710909  32.3665118  59.9208164  51.9932032  32.3840141  59.2946339
  41.3934183  37.6828933  87.9948997  40.9448862  37.2324586  88.7105560
  40.9327650  37.3971534  87.2059917  71.0545301  98.2809734  28.2896399
  70.5576420  97.8175545  28.9638591  71.3331842  99.0929413  28.7130666
  17.5957763  15.8169794  40.2031565  16.7786801  15.3303504  40.3116798
  17.6410055  16.3838649  40.9731102  41.1894194   0.4379723  66.6828012
  40.4778806  -0.1384380  66.9615459  41.8266002   0.3939221  67.3957443
  14.4002438  10.3116381  44.7465324  14.7612023  10.4731596  43.8748360
  14.3242335  11.1812723  45.1391983  12.8492367  54.3620825  34.3794680
  13.6116219  54.8710299  34.6551037  12.4130249  54.9157763  33.7318754
  10.5311763   8.4178823  44.2052078  10.8051479   8.8695335  43.4069681
  10.1367211   7.6025099  43.8956833  10.3410220  30.7535958  56.4291906
   9.5975173  31.3208032  56.6334152  10.8109033  30.6667066  57.2585869
  98.0664825  32.6788330  43.0312061  98.5959530  33.4714127  43.1190014
  97.3230457  32.8213191  43.6170673 101.9069195 101.8275547  58.8202715
 101.1355019 101.4986706  59.2817783 101.5696907 102.5226593  58.2551765
  77.3703146  96.0631657  57.5505972  76.6463804  96.4384651  58.0518913
  78.1139135  96.0819626  58.1530380  32.6636958  11.8431997   1.5695082
  32.2287178  12.5937104   1.9741817  31.9714665  11.4019942   1.0771752
  39.7858644  25.2659631  71.4956284  40.2287149  25.6042504  72.2738791
  39.4270539  26.0431910  71.0673714   6.6327608  31.9537616  49.9129105
   7.1050233  32.3163795  50.6623840   6.0837591  31.2643719  50.2865028
  94.3745804   0.1545246   7.9878175  95.3247356   0.1612030   8.1035709
  94.1060543   1.0571392   8.1593180  14.5653081  25.4765582  40.4907465
  15.0453067  25.4861736  41.3188410  14.9873781  26.1532187  39.9613881
  12.9489672  51.0024595  38.9556050  13.0446982  51.2712717  38.0419254
  12.4147069  51.6901875  39.3528819  11.3186562  40.1815033  28.4848356
  11.2316525  39.2326069  28.3939409  10.4565370  40.4738140  28.7806988
  89.8675537 100.4080296  50.9187746  89.8837376 100.9337044  50.1189995
  88.9832973 100.5266857  51.2655258 113.3909130  12.3604584  37.8864455
 114.1699696  12.8294611  37.5875640 112.9226017  12.1369529  37.0821047
  65.4064035   9.0216190  32.0650578  65.5772686   8.8536823  31.1383247
  65.7753325   9.8906314  32.2229862   8.0360860  37.6865172  17.7807891
   7.9415876  37.0367837  17.0842612   7.9148996  38.5281658  17.3412752
  34.6704149  36.9633842  63.4792328  35.2012491  36.3795590  62.9373884
  35.2628851  37.2495341  64.1744518  13.3331823  56.2673664  31.8221736
  13.3772826  55.3232718  31.6705894  13.3523774  56.6518116  30.9457803
  27.4477935  54.1888094  62.5690222  28.1957150  53.6404562  62.8059864
  27.0346856  53.7279081  61.8388510  55.8865738  76.5033531  10.0698328
  55.7588673  77.4355173  10.2458704  56.7359877  76.4566422   9.6310353
  10.3150845  34.2333603  63.9264917   9.6609020  33.8585162  64.5162106
  11.1192131  34.2575979  64.4451618 104.9934292  43.7921762  38.7540388
 104.3178654  43.3104563  39.2313147 105.2413368  44.5044422  39.3434882
 108.1122494  45.1891994  16.0751343 108.7178516  45.1634741  15.3343070
 108.1642056  46.0895872  16.3958025  16.0301852  37.0499730  67.8208399
  16.0442638  37.8572106  67.3066378  16.9496715  36.7924356  67.8875685
  43.7759876  22.1305037  36.8046331  43.5300589  21.9701147  37.7156901
  43.9452219  21.2595820  36.4453483  19.3429661  16.2093949  49.5767069
  19.2731297  15.2585697  49.6620607  19.0546691  16.3913977  48.6822844
 101.9425964   6.1938882  49.1252375 101.0814095   5.7901168  49.0177155
 102.2873116   5.8115423  49.9322128  34.0703082  18.9503253  65.9468842
  34.6125579  18.1694293  65.8355427  33.1769323  18.6136913  66.0160875
   1.3635573  46.6368628  50.7621622   0.5932511  47.1102190  50.4478407
   2.0761943  47.2732019  50.7033825  53.4107637  56.6903162  30.1878428
  52.5254726  56.9631100  29.9468541  53.9223289  56.8022251  29.3865871
  40.8701372  56.2841702  44.2963505  40.9581375  56.9362593  44.9915266
  39.9678469  55.9737206  44.3719864  31.1347198  35.7108259  82.6160145
  30.7867384  35.8303404  81.7323494  31.0919142  34.7661901  82.7645493
  12.9736459  20.6168771  54.7409058  13.7925613  21.1121106  54.7221136
  12.6292229  20.7569551  55.6229401   4.9405023  12.3153675  57.0130014
   5.5159962  11.9438171  57.6815748   5.4766661  12.3365450  56.2203407
  46.9926929   5.3486460  26.7612958  46.8061781   4.9159020  25.9281230
  46.7564964   4.7012317  27.4255991  17.6373684  41.4213467  33.9151335
  18.1591606  41.4660597  33.1139064  17.2355938  42.2870922  33.9879322
  43.3681822  51.0605288  55.9199429  42.6509666  51.6924810  55.9696484
  43.6852264  51.1284018  55.0193310  61.6876793  99.8071671  66.9534016
  62.2247171  99.9978733  66.1843443  62.0865345 100.3191376  67.6569891
   3.3583763  25.6375813  35.7677150   3.9578578  26.3767886  35.6656027
   3.7332058  25.1221108  36.4818764  71.2207603  60.4622316  10.6344986
  71.0491705  60.3384495   9.7009754  71.8826103  61.1529875  10.6668389
  55.0154495  28.3847022  58.7171984  54.1733694  28.7824082  58.9384699
  55.1586056  27.7307200  59.4013357  43.8332033  38.8531971  53.4907866
  44.3445539  38.7541461  52.6877022  44.3675661  39.4204950  54.0465403
  25.0882196  41.3786840  60.1028061  24.2141032  41.2436581  59.7368574
  24.9872279  41.1977053  61.0373020  15.7962084  43.8945389  44.4908476
  15.7959449  44.4568110  45.2654982  15.7699466  44.5035458  43.7528419
  32.1614146  19.2293620  69.1526461  31.9544768  18.3737874  69.5286751
  32.9969072  19.4709468  69.5524168 110.6190968  19.3109667  50.5063629
 111.1956024  19.9095619  50.9812927 109.9227428  19.1040850  51.1296797
  66.5989685  24.6853352  49.7377872  66.5825224  25.6285715  49.5757151
  65.6814480  24.4174600  49.6864367 109.6172047  32.0519996  31.0654521
 109.6945572  32.5977516  31.8480158 109.8662376  31.1756325  31.3590503
 113.5332108  67.3640156  14.2277122 114.1679192  67.9271889  13.7847531
 112.8637791  67.9664564  14.5519924 110.9890938  33.1807113  22.5673962
 111.4738750  32.9948783  23.3715582 110.1805592  33.5970926  22.8659463
 108.6393929  85.8904457  88.2160854 108.3385849  85.6457996  87.3409271
 108.3760643  85.1580524  88.7732983   0.0520182  26.1246157  36.1150289
   0.5216169  26.1657357  35.2819538   0.2023935  26.9801044  36.5172195
  94.5572281  17.0404792  32.4356318  94.6039295  17.7470064  33.0797362
  94.8124218  16.2562132  32.9214644   2.6579502  67.2488976  80.9049416
   2.8728658  67.7415514  80.1128960   2.8644586  67.8474951  81.6227627
  25.2500582  19.8422420  74.5663786  25.1005769  19.8539412  73.6209965
  26.1380577  19.4985580  74.6642208  72.1489763  93.0630493  54.1015911
  72.8817892  93.6317730  53.8654518  72.2911501  92.2652340  53.5921717
  12.5464368  59.5927286  39.5582986  13.4459352  59.6118879  39.8850513
  12.6051784  59.1306973  38.7220502  29.3354464  16.9706142  52.9973841
  29.4162631  16.9373810  53.9505863  28.3953428  16.8949723  52.8339338
   5.5024916  23.5684323  73.2128668   6.0480696  23.3942628  73.9798355
   5.3262711  22.7034020  72.8428650  33.4893322  19.6173406  59.6615314
  33.6753488  20.3635788  59.0916586  33.2476401  20.0107002  60.5000353
  11.6764247  52.7620792  79.6366930  11.7748785  52.7930117  78.6850739
  11.8813288  51.8564796  79.8693705  54.8086309  92.6325417   6.7894095
  55.1199913  92.3323822   7.6433361  54.7515154  93.5840893   6.8762285
   7.0366836  33.7407517  40.6491089   7.9126495  33.3761096  40.5228138
   6.4967233  32.9884410  40.8913898  25.6589723  19.2730629  39.5566607
  25.9782743  19.0499532  40.4310179  24.8789859  18.7304425  39.4408321
 112.3896694  44.3436241  61.1213923 113.0540276  44.2277050  60.4421139
 111.9305515  43.5043144  61.1530876  93.7609768  54.2235899  35.3174829
  93.2415676  53.5284472  34.9134803  93.1965637  54.9958515  35.2818370
  30.5911374  27.2325468  54.0359068  30.7674718  26.3128042  53.8378906
  30.6308031  27.6722670  53.1866074  17.2447109  33.2932687  42.4231529
  16.5768015  33.8824773  42.0724964  18.0155647  33.8482976  42.5412989
  93.1879520  95.1284218   1.8170521  92.5911808  95.5041790   1.1698228
  92.9078960  94.2168999   1.9002910  54.1705561  44.4515562  33.0651283
  54.0693092  44.4104671  32.1141863  55.0498867  44.8058748  33.1972885
  13.4459746  38.8946724  49.3057680  14.1199517  39.0207863  49.9736595
  13.9123261  38.9853501  48.4747887  22.2670078  33.9202929  84.1377449
  22.5504494  34.5856404  83.5106850  22.8888750  33.2018590  84.0221500
   6.4194584  13.8478363  68.6354733   6.9530761  13.0673814  68.7850571
   6.7549521  14.2141509  67.8172493  31.5941405  35.3561330  76.8822002
  31.1956620  34.9422026  76.1166239  30.9702992  36.0350776  77.1392775
 110.8658981  15.8307648  50.5512381 111.1413002  16.2259114  51.3784313
 111.1940765  16.4283526  49.8793602  42.2474146  15.4489458  70.5999994
  42.7595854  14.6701944  70.3821564  42.8799677  16.0487604  70.9953880
  30.1706147  50.4141235  46.6144085  30.7745075  49.6745491  46.5467405
  30.4938769  51.0467625  45.9729290 109.9947453  40.5001020  82.3597336
 110.3323269  41.1827517  82.9396152 110.6481647  40.4325533  81.6635132
   9.4463235 102.8642750  52.4772072  10.2355886 103.1863213  52.9126167
   9.6794319 101.9853783  52.1781731  65.6197262  86.5977955  27.2129822
  65.5820990  87.0448399  28.0585384  64.7434425  86.2304878  27.0970440
  22.8584337  13.0475247  48.0998707  23.8067842  13.0364656  48.2292461
  22.5677800  13.8532043  48.5272264  24.6056175  38.0523705  19.4530702
  24.7108316  37.1143031  19.6117902  24.2725682  38.1078649  18.5573971
  23.4403825  42.9404163  52.7122593  23.2232022  43.5147619  53.4465551
  24.1189170  43.4135675  52.2306442 112.4551392  21.3579345  63.4361362
 113.0827236  21.3851547  64.1583729 112.4998283  20.4577494  63.1137943
  85.5348587  89.9729156  48.9482641  85.8418846  90.1330757  48.0558968
  86.1811447  90.4066849  49.5053911  20.3913307  40.3853130  78.6321020
  20.2550983  41.3015079  78.3907270  19.6521950  40.1755810  79.2030001
  17.1167755   8.0580741  53.9115572  17.8614783   8.0260873  53.3110332
  16.4955497   8.6527765  53.4912729  25.8640766  46.3861465  68.2404566
  25.4052711  45.6849432  68.7031078  26.1439180  46.9861317  68.9317894
   4.1763464  59.2275953  56.8530750   4.7849739  59.5210314  57.5310850
   4.6870592  58.6180449  56.3203001 111.6495705   0.4942761  28.3298039
 111.8649006  -0.2372801  27.7512813 110.8710670   0.2030828  28.8045430
   4.4238213  39.7768044  29.8506784   4.0426677  39.0032959  29.4351816
   5.3626150  39.7027135  29.6791887  95.8759785  97.3397827  44.7753286
  95.2196693  97.5048923  45.4522562  96.5790462  96.8770313  45.2311707
  36.2947917  13.9961410  22.4616265  35.5769444  13.5178328  22.8765321
  36.1023188  13.9518726  21.5250230  79.0312958  18.2133377  62.8424168
  78.4666586  18.9632440  62.6551723  78.6295652  17.4863529  62.3666620
  22.0959187   3.8238409  73.2231188  21.7499852   4.0426314  74.0883875
  22.1114421   2.8669143  73.2063341  11.6592538  26.4725852  39.9548197
  12.4407423  26.0226727  39.6337509  11.2297416  26.8000507  39.1645575
  22.1380806  27.2209311  55.9403992  21.6311502  26.5290594  55.5154657
  21.5164542  27.6439643  56.5327263  99.5948219  14.6810281  32.3583364
  99.7521210  15.5365622  32.7577734  99.1470528  14.8793638  31.5359020
  20.9513831  21.3055992  41.2418795  21.7459488  21.0748553  40.7605696
  21.0824203  22.2189116  41.4966774  15.7277536  21.8260813  15.1913786
  15.1881433  21.6278744  15.9567320  15.2477729  21.4467740  14.4551885
  15.8875668  26.4203691  52.7217484  15.1492524  26.6419268  52.1542692
  16.0110998  25.4793239  52.5976181  18.8775480  35.7639146  57.6258373
  18.7025106  36.3325715  58.3756542  18.5669398  36.2620568  56.8697882
  59.1197205  46.0195732  36.0814905  58.2805252  45.8685875  35.6465387
  59.3013763  46.9480181  35.9358168  27.5535154  26.0002375  62.1426058
  27.9807448  25.1628804  61.9622231  26.9262147  26.1079812  61.4276838
  72.7757359 100.4560757  80.5298233  73.0530500 101.1599636  81.1162281
  72.3953485  99.7967434  81.1101723  26.2152767  30.2644444  59.2799950
  26.4236927  29.3873286  58.9583397  25.5913734  30.1169181  59.9907780
  24.6708393  17.4922073  77.9621506  24.4051409  17.5220776  77.0430517
  23.9462757  17.0522439  78.4067535   1.8095389  23.0151868  47.4458838
   2.5414234  23.3235288  47.9802084   1.1637640  22.7046800  48.0805445
  72.8777981   8.1578934  26.3055730  72.5379610   8.9892870  25.9746242
  73.0815744   8.3312762  27.2246194  25.7727051  51.8409777  85.1259708
  25.1391649  51.8553972  84.4085884  26.0634637  50.9300947  85.1704788
 107.6567554 103.3715153  50.4534054 107.7898598 102.5104809  50.0569963
 107.1416473 103.8553715  49.8078203  20.2609301  39.0789580  85.4351139
  20.4215360  39.7327232  86.1155701  20.0420594  38.2810593  85.9164429
 101.0277081  36.6316891  74.7434521 100.4003239  36.7270494  75.4600573
 100.4875851  36.4457107  73.9753962  95.1539707  89.5194435  85.4566288
  95.7312870  90.1039314  84.9653912  94.3847370  90.0535297  85.6547737
  35.0965500  30.6105971  64.8126650  35.2739501  31.5267062  64.5993471
  35.6164956  30.1127481  64.1817665   2.3067959   5.8039910  82.3566628
   2.4468376   4.8729783  82.1839333   3.0133259   6.2441826  81.8841362
   9.2064577  51.0002327  53.0190134   9.9373919  50.5935574  53.4843969
   8.4947073  51.0168982  53.6588287  80.1722240 106.7088127  82.6515675
  79.2176533 106.6548729  82.6974773  80.4582310 105.8022594  82.5393581
  76.3155699  93.5088539  27.6570010  77.2603703  93.6170292  27.7660155
  76.1317825  93.8690186  26.7893982  79.2811441  93.0883884  72.2016430
  79.2903614  92.9102325  71.2612152  79.6658278  92.3063087  72.5973606
  20.9780693   6.3139772  61.7949438  21.4250636   6.3938588  60.9523010
  20.0990224   6.0079223  61.5716934   9.2235237  70.1473761  31.9969726
   9.3475759  69.2353725  31.7341113   9.5125270  70.6563663  31.2395835
 104.1969299 101.6998291  66.5783310 104.0844822 100.9125710  67.1110725
 105.1371861 101.8767166  66.6078424  52.4388552  73.8498163  13.6037159
  52.7697468  73.6705542  12.7235973  52.8310823  73.1689453  14.1503453
   9.9039865  73.6814022  69.8162603   9.5356762  73.6668491  68.9328766
   9.1701889  73.4496927  70.3855467   8.4703583  48.1336880  76.3159370
   7.8955996  48.1422186  77.0813227   9.3479508  48.0078936  76.6768217
  12.5776505   5.9956783  69.7382021  13.3091784   5.8559221  70.3395033
  12.2731590   5.1142102  69.5224905  32.5819325  28.8071370  35.7786226
  32.9950619  27.9511595  35.8920217  31.6459441  28.6373210  35.8850217
 108.2385731   6.5227050  51.0041761 108.5922241   6.1750895  50.1854420
 107.3174858   6.6982669  50.8117914  29.8026586  44.9558544  61.9633389
  29.1774344  45.0773048  62.6778889  29.4599152  44.2111731  61.4691639
  30.0442934   4.5834586  31.7881918  30.3842115   5.3339851  32.2754264
  29.2977858   4.2805231  32.3050904  17.5689542  15.8309627   9.6121848
  16.7501903  16.0244858  10.0687003  17.5380659  14.8873281   9.4546068
 113.5678426  34.7140527  53.6742830 114.4933020  34.7624254  53.9139032
 113.1073904  35.1046133  54.4170332 111.2124157  17.7525330  39.5443821
 111.3194656  17.4592733  38.6395216 110.3423977  17.4422216  39.7953916
 108.3466625  12.7109230  76.9299316 108.9530945  11.9835865  77.0694113
 108.7809467  13.4647739  77.3290968   2.9406887  57.2011280  38.1266356
   2.4688873  58.0136108  37.9435873   3.1102011  57.2295380  39.0682769
  41.4211655  34.8645568  63.4422398  42.0465803  35.3033876  64.0188837
  41.7920780  33.9927483  63.3058357  98.9835167  86.7893505  73.9673853
  99.5888233  87.5237274  73.8648033  99.4890213  86.1261559  74.4373655
 103.1764698   2.7355248  76.1139774 104.0087605   2.8168744  76.5796995
 102.5408840   2.5174326  76.7956638 112.8936672  67.4924278  19.5239961
 113.4802532  67.9595757  20.1189137 112.2733879  67.0462656  20.1005602
  64.1167498  91.7568684   6.9435000  63.8667488  90.9607983   7.4125361
  64.1690207  91.4880466   6.0263115 100.2894211  58.2867718  78.7606668
 100.9985733  58.9028978  78.5769987 100.6131935  57.4458075  78.4379005
   7.1435606  37.2119880  45.5671692   7.4381751  36.4702344  46.0956001
   7.0289510  36.8496704  44.6886349  38.9307332  30.8700800  78.6824083
  38.1724906  30.2948093  78.7842274  39.4589496  30.4520226  78.0023766
   5.2901888  22.3763919  55.9362459   5.6547904  22.1420979  55.0827789
   4.3807107  22.0804429  55.8975840   7.0577586   9.8643160  85.5642509
   7.4373591   9.5942777  86.4004421   7.5490063  10.6488240  85.3204155
  38.6755919  29.3111610  59.6192646  38.3517742  28.4539962  59.8961020
  37.9065824  29.7527599  59.2589235  20.7691956  12.2063804  26.0233474
  21.2841940  12.9745734  25.7765937  21.3231587  11.4615321  25.7897735
  10.1577711  59.9496269  70.6566477  10.1300323  59.0026712  70.5197525
   9.6310067  60.3102684  69.9434233  69.3903971  38.7393332  35.4560900
  69.7843266  38.0062008  34.9832582  69.1603804  39.3690753  34.7728968
   8.8379347  35.7015920   7.8311944   8.3512139  36.2858725   7.2498608
   8.6827189  34.8264241   7.4759138 108.7272167  29.4075871  35.4327297
 107.7762890  29.3052030  35.4711866 108.9013100  30.2128792  35.9199929
  33.8857102  42.4872541  55.7165813  33.6285043  43.3969927  55.8664274
  34.8410034  42.4954748  55.7764244  32.1079969  21.9009614  62.5619888
  31.5710640  22.6919484  62.6096678  32.5447464  21.9588184  61.7122030
   1.4157712  84.3297386  72.1907091   1.9050823  85.1519394  72.1625948
   0.7261316  84.4834042  72.8364801  30.6458116  47.4631310  63.0813074
  30.9513068  47.0727968  63.9001751  30.5364347  46.7200422  62.4879313
  30.6899309  41.2477827  12.6363146  30.0353503  41.8213940  13.0347228
  30.4101706  40.3637695  12.8739882  13.8500929   3.3356702  41.0335827
  13.8970852   3.5991558  40.1145649  13.6275792   2.4051347  41.0048819
  13.2959855   7.7132481  44.3044138  13.7871480   8.4717405  44.6201372
  12.3776543   7.9644287  44.4034576  54.5768309  67.9151583  18.0125976
  54.4072866  68.5310030  18.7254989  54.0791655  67.1323824  18.2488620
  40.9355831  18.1283760  67.7848244  41.7171478  18.6784863  67.8374147
  40.2222824  18.7418854  67.6086569  90.5115509  18.5717964   8.6986399
  90.1019764  19.3880773   8.9852840  90.8083344  18.1556547   9.5079464
  90.2487469  34.9507737  17.2591019  89.4255829  35.1162744  16.7994881
  90.1260757  34.0946889  17.6693511  41.1599588   8.1526148  23.3642745
  40.9648323   8.9949691  23.7748814  41.3934374   8.3739734  22.4627662
  70.7316732   9.0942335  75.8061790  70.0952959   8.7957925  76.4559364
  71.4670944   8.4880453  75.8951855  15.5169737  40.0436449  44.6639538
  15.5545831  40.8459997  44.1433382  16.2752998  39.5354867  44.3759441
  39.4666362  50.9816790  72.4800682  39.3589711  50.1025486  72.1170664
  39.4425106  51.5601540  71.7178249  37.8767753  61.9115210  46.1814022
  38.0821252  61.8437243  47.1138525  37.4523067  62.7646828  46.0910416
  47.5575924  24.4390059  49.9069977  47.5130749  23.5782385  50.3233242
  48.3885193  24.4325709  49.4318628  87.4322128  94.5368004   6.0084236
  88.0407715  94.2541313   6.6910613  87.8395939  95.3171730   5.6325531
  20.1327682  32.5984168   9.1406071  20.9432292  32.9871249   8.8115335
  19.7317755  33.2901716   9.6668285  85.4277039  50.2529669  62.4947691
  84.8530483  50.4463577  61.7540836  85.7521057  51.1084843  62.7759838
  26.3399673  53.9224386  27.1017599  26.1797881  53.9684391  28.0443406
  25.5806637  54.3526077  26.7085075  11.9675374  55.3885031  68.5437012
  12.5793135  55.2775097  69.2714643  11.7819691  54.4969988  68.2487059
  44.6237755  14.9828577  49.9170399  44.0056038  14.4042504  49.4705963
  45.4791832  14.5798337  49.7684574  45.2440166   3.3668730  52.5372839
  45.5674219   4.0867579  53.0789518  45.2888727   3.7020484  51.6418076
   8.9794880  58.1235838  83.7322521   8.5903966  58.5873699  82.9907990
   8.4424263  58.3782005  84.4825554  39.5363331  70.9527493  57.8472233
  39.5501709  70.0314856  57.5877714  40.1790905  71.3723230  57.2753382
   7.3411822  51.8761444  80.1508904   8.1533068  52.3564720  80.3120422
   6.7262471  52.2214127  80.7981014  32.3105955  40.0220060  51.6314411
  31.9484353  39.1684246  51.3938093  32.1014786  40.1207304  52.5602865
  23.0174994  26.7020702  34.0023994  22.1017623  26.8520665  33.7675452
  23.1137514  27.1092272  34.8633242  93.3299541 104.8906612  50.5332804
  92.3825836 104.9923325  50.4417896  93.4552574 103.9572430  50.7043743
  24.3823171  41.1999226  18.1379724  23.6812544  41.7277336  17.7556622
  24.0931726  40.2952433  18.0188799 112.2069168  51.1909008  62.4731779
 112.6560593  50.3601217  62.6290989 112.5468063  51.4925051  61.6307163
  32.6375747  38.0342031  43.9051867  33.2708430  38.7230062  44.1070652
  32.4689579  37.6098275  44.7464371  60.3017187  25.9335399  59.8424721
  60.1420498  25.0331330  60.1253223  60.0580502  26.4686441  60.5977964
  41.4771748  44.2374229  60.8695984  42.1115780  44.6209669  61.4751244
  41.0633326  44.9903631  60.4476452  22.2976637  70.0233221  67.1925306
  22.8541708  69.4091654  66.7136335  21.4898491  70.0637817  66.6806412
  55.5182076  14.6324539  54.7364044  54.8366499  15.2831733  54.5682478
  55.9484339  14.5119929  53.8898659  49.1952515  25.8643794  64.1736269
  50.1158905  26.0421014  63.9810801  49.2176151  25.1582098  64.8194265
  58.7116194  30.8860540  75.2587271  59.5866299  30.5373812  75.4290533
  58.5483456  31.4883780  75.9845209  55.4226780  31.7427468  54.5070601
  55.6618834  31.5549397  55.4146624  55.1003790  30.9081721  54.1667080
  27.1559119   4.2155057  41.2854004  26.8045735   5.0196385  40.9030867
  26.5610766   4.0139356  42.0077419  68.8324928  97.8535938  12.1433020
  68.4857845  97.2300053  12.7813935  68.4923172  98.7017822  12.4280858
  29.5804381   4.9629042  59.1635752  29.6711564   4.4273564  59.9517345
  29.7213459   5.8600485  59.4660807  19.7558630  53.5183668  16.3069618
  20.0201011  53.1718731  15.4546988  18.8640797  53.1936407  16.4314926
  44.3756008  27.6902723  38.6939859  43.9165354  26.9064951  38.9959502
  45.0648975  27.8292656  39.3434381   4.0927121  52.4380636  59.1033983
   4.1551772  52.5729418  58.1578112   3.4875482  51.7028904  59.2010117
  35.5891943  26.1269593  74.5903969  35.0122499  25.4284668  74.2814016
  36.1134601  26.3609624  73.8244867  27.3294473  62.9733038  32.9746246
  28.0505252  63.5058403  32.6389384  27.7332687  62.1331882  33.1922507
  17.2777677  46.7776299  64.9438429  18.0623305  46.4158583  64.5317602
  17.5598204  47.0176220  65.8265018  28.4790230  37.5922775  68.3108473
  29.1055584  38.2678914  68.5701370  28.9409566  36.7672992  68.4600496
   8.9745599  83.5368729  55.9378481   9.6006119  83.6387348  55.2209711
   9.3814933  83.9885330  56.6772079  37.8456545  34.2499566  36.9950628
  38.6950660  34.1910386  36.5577269  37.2750902  33.6714864  36.4890385
  41.6834211  40.7059669  78.1440496  42.6079893  40.5655622  77.9398632
  41.3250542  41.1204100  77.3591661  28.2436585  75.7558107  70.2729368
  27.4116993  75.7907629  69.8008633  28.8752675  75.4484034  69.6227074
  45.9160280 103.9223766   2.7192643  46.2805939 103.8665390   1.8359716
  44.9908113 103.7022400   2.6108649  29.3344045  41.2392139  62.2357273
  28.8848209  40.4340315  61.9792461  30.1385927  41.2402868  61.7165804
  38.5617566  51.6536951  67.5375652  38.1638622  50.8556175  67.8853989
  37.8310156  52.1375227  67.1526480   9.8468888  55.3153229  83.0406475
  10.2020586  56.1306429  82.6866150  10.6150305  54.8308372  83.3430672
   5.9278727   5.9749067  68.0111074   5.1413739   5.4325533  68.0703068
   6.5137744   5.4849899  67.4341059   8.2596856  21.3998151  72.1771431
   8.5404038  21.1132050  73.0462170   7.3228449  21.2050962  72.1517372
  34.3621302  54.1047525  72.3998833  34.9127460  54.0802670  71.6172886
  33.4662843  54.0956640  72.0628214  46.7269135  51.9683838  90.3937149
  47.1316481  51.2920094  90.9367943  46.0375595  52.3378944  90.9455109
  15.5099154 101.2058163  66.5243864  15.3989971 101.3663197  65.5872774
  16.4346480 101.3885307  66.6908741  95.5568600  84.1699028   4.8628539
  95.9055996  84.9297714   5.3289175  94.6068192  84.2797279   4.9027613
  92.5694084  15.2477872  37.2839832  93.3184624  14.6681988  37.1452856
  92.5138283  15.3439951  38.2347107  24.7037005  64.5910215  47.3140621
  24.6430492  65.4879999  47.6426697  25.4350042  64.2075253  47.7981663
 107.2634983  53.7260962  26.4241529 107.0241356  54.6226311  26.6590047
 106.4561939  53.2247734  26.5389061  44.5721197  22.0569420  61.2129021
  45.5080271  21.8740988  61.1299944  44.1444254  21.2450433  60.9406328
  16.8293512  29.5006657  57.5548744  16.1884165  30.2113962  57.5377321
  17.6772416  29.9413800  57.4993181  14.5127594  35.1370931  50.3349400
  14.5833898  34.9415183  51.2692833  15.3288746  35.5900097  50.1226807
  29.3054605  18.0597568  60.2941847  29.0804267  17.2919822  60.8196497
  29.9956918  18.4971964  60.7926416  76.5035343  91.0231590   6.6006637
  77.0331430  90.3932667   6.1118054  77.0007896  91.1826134   7.4028742
  75.6170416  83.5749149   2.2290942  74.8357916  83.0234623   2.1868967
  76.3199425  83.0208111   1.8898003  16.2993371  89.7122002  44.5361328
  16.4767861  88.8869572  44.0847826  17.0868206  90.2373409  44.3935251
  42.4352074  22.6245213  75.9173107  42.5621557  23.5219240  75.6094408
  42.8113365  22.0788884  75.2266264  38.7738180  33.8412666  52.8610325
  38.1141686  33.3566904  52.3647642  39.5556498  33.2904339  52.8216267
  69.2159271  32.7542067  47.9065752  68.2715464  32.8923059  47.9794455
  69.5995283  33.6049104  48.1196070  10.3606057  20.4899049  53.7204981
   9.8473179  20.2146769  54.4801140  11.2148356  20.7266736  54.0816927
  36.3453555  33.3787632  55.0850153  35.4407287  33.1977153  54.8298597
  36.5006423  34.2776966  54.7951269  23.9281869  16.0306942  53.9342117
  23.7990952  15.0966835  53.7693119  23.0470419  16.3703179  54.0906525
  27.6886392  27.7991772  77.0760632  28.2147002  27.5815129  76.3065767
  28.0548501  28.6257482  77.3905516  38.4785032  66.0707188  48.7949800
  38.6237168  66.3073683  49.7110271  39.1305614  65.3931093  48.6163950
  12.6327157   6.1779016  19.3684888  13.0553353   5.3198564  19.3313003
  12.5384891   6.3581431  20.3038311  47.1620035  35.2903843  59.7645187
  47.7239704  35.5496550  59.0343094  46.3339710  35.0425267  59.3532228
  14.4108319  42.9956341  51.6651583  15.2820110  42.8886795  51.2832737
  13.8285410  43.0884886  50.9111404   4.6867493   4.0552345  46.3009596
   4.4116089   3.1480050  46.1688042   3.8875866   4.5120788  46.5633821
  32.2697735  24.1631174  53.9739990  33.0262685  24.1204262  53.3890867
  31.5225673  23.9495945  53.4151411  33.2406163  83.6265850  72.7782488
  34.1002584  83.2548237  72.5806618  33.3368492  84.5616817  72.5978231
  42.7712536  43.1257820  53.9967680  43.1555176  42.8654099  53.1596375
  42.4625874  44.0200138  53.8508129  56.3842058  36.0392427  52.4306631
  55.8622503  35.2371573  52.4520206  57.1151924  35.8651781  53.0236101
  35.1547122  39.0541458  29.6197224  35.1832271  38.1086802  29.4730568
  34.5223308  39.3771291  28.9778447  39.1626382  54.3057823  78.8106251
  38.2104039  54.2150974  78.8460588  39.3999577  53.9998722  77.9352188
  18.6902463  41.5714931  64.3487453  18.9319742  41.4130259  63.4362268
  18.2309401  42.4111414  64.3324995  38.5467815  16.6964519  56.4650869
  38.2684684  15.7936978  56.3107824  39.4095731  16.7545676  56.0546637
  16.4419138  60.5628633  21.9774961  16.2108624  61.0018158  21.1588597
  16.6600883  59.6682167  21.7162633  19.8245239  57.3780727  38.3170986
  19.7311282  57.0395041  39.2075372  18.9575362  57.7199078  38.0986691
  39.2059493  87.2760487  42.7307415  38.9881825  88.2062531  42.7901697
  38.8053036  86.8861580  43.5077190  37.6665688  14.1106832  56.0172367
  37.0169544  13.4113932  55.9449625  38.3948946  13.8185942  55.4690933
  36.5253592  32.5626850  80.2978134  35.7343268  32.5131822  80.8345127
  36.2659383  32.1923542  79.4541359  34.3261480  25.9136724  64.7372389
  33.3971810  25.7212329  64.6098948  34.6720648  26.0214448  63.8512611
  22.8349257  70.2074480  49.5703602  22.2764587  69.6139145  49.0682983
  22.9268456  70.9794998  49.0120459  51.8306494  37.3077273  58.4414625
  52.7314329  37.5099778  58.1886387  51.2934065  37.7256322  57.7684402
  14.3749809  17.7747047  52.2318649  14.9947155  17.5790739  51.5290928
  14.9107647  17.7954376  53.0247927  35.3964567  33.4335041  68.5483265
  35.1873279  33.9041042  67.7414608  34.7866917  32.6957512  68.5602188
  59.3750143  33.9697194  74.8513365  59.6533060  33.3566928  74.1709089
  58.4316063  33.8281727  74.9299431  12.2767806  23.5931015  52.4517202
  12.5827098  23.4212589  53.3422899  12.5184417  24.5045543  52.2871447
  77.6128769  94.6419716   9.6230090  77.1830559  94.1241932   8.9422822
  77.4237871  94.1731167  10.4358149  18.7554801  25.0267291  63.9334249
  17.8563833  25.3528357  63.8945532  18.8278234  24.6264482  64.7999001
  64.3354034  28.1864524  68.1595325  64.6505404  28.8800240  67.5799799
  63.8993549  27.5659895  67.5754786  29.4408727  49.6109676  85.2967358
  29.0234828  48.8145828  84.9684334  29.4577980  50.2007055  84.5429802
  45.5136919  23.7834311  70.5672359  46.2957287  23.3589363  70.9200191
  45.1913214  23.1761479  69.9012661 107.9819965  22.0988250  71.0441065
 107.3905945  21.9188142  70.3133106 107.6961708  22.9484153  71.3798618
  35.3065586  41.2488413  35.0607991  35.5218911  40.3299904  34.9008703
  34.8980880  41.5442514  34.2470956  37.7490163  23.9633584  47.9489946
  36.9291615  23.9701557  48.4429836  38.4308529  23.8961792  48.6174393
  22.2081161  66.2733984  69.8619223  23.1255674  66.1704874  70.1147509
  21.7957950  65.4475164  70.1151896  27.7665234  20.3394556  86.0256100
  27.0319676  20.1399302  85.4452229  28.4764886  19.7774220  85.7152843
   8.1032294  21.3684177  45.2148819   7.6468438  20.6564355  44.7665167
   8.8978493  21.5058112  44.6991920  32.4099708  26.3895941  20.4923391
  32.0188951  27.0741558  21.0351706  32.2374368  26.6690683  19.5932519
  30.9206867  43.1865168  50.5044508  31.2139225  43.9362812  49.9866629
  31.3264418  42.4298382  50.0813293 110.2504730  39.9720860  72.4591160
 111.0825539  40.3556204  72.7362108 110.4035759  39.6947813  71.5558481
  15.9294713  29.1544342  47.9462099  15.0785923  29.5032549  48.2118464
  16.5179324  29.3852472  48.6650085  47.0947218  27.6116586  71.9745016
  47.5993204  26.8719339  71.6362429  47.7555466  28.2279801  72.2902441
  53.3902502  78.6218023  63.6107826  54.0642452  78.2861710  63.0197620
  53.2174063  77.8978777  64.2126846  13.5309935  59.6057510  42.6668358
  14.3867671  59.5424652  43.0909586  13.0993712  58.7767601  42.8734827
  30.2747941  70.9002829  65.5141258  29.3692970  70.9519148  65.2081108
  30.3112912  71.5028429  66.2569714  36.4450812  93.5314369  31.1573339
  37.2567582  93.8597202  31.5441704  36.2829590  92.7027321  31.6081142
  29.8463130  61.2256289  48.3917713  29.4318581  61.2792587  49.2529249
  29.2994738  61.7730474  47.8282690  24.8573718   0.1879189  52.5983858
  24.7095332  -0.7498672  52.7205849  24.3000063   0.6057999  53.2548475
  40.4960299  37.8500724  82.8570938  39.7072363  38.3703399  82.7042580
  40.7032728  37.4725056  82.0022678 102.4389267   1.0852571  48.9889574
 102.8089905   0.2696886  48.6511183 101.7978001   0.8049002  49.6420908
 105.5465984 106.0209465  42.2321796 104.8300266 106.2689114  41.6480017
 105.2666378 106.3229942  43.0962515   4.6007261 107.0149517  43.1906748
   5.4867089 106.7138290  43.3921432   4.5981184 107.1331120  42.2408009
  21.4902520  18.1059730  65.2507401  22.0017505  18.8483799  65.5723476
  20.8231926  18.5002065  64.6887398  35.9995914  49.1389704  60.3848839
  36.2444234  48.2169867  60.4638529  35.0497913  49.1253042  60.2668810
  14.7531712  11.6464460  72.1557570  15.0459862  12.3472798  71.5732431
  14.1305017  12.0703673  72.7463531  36.0658026  57.4222088  68.5419321
  36.0155606  58.3595419  68.3545303  35.8173156  57.3485231  69.4633770
  63.2294083  21.2313485  69.0808678  63.5801554  22.0688152  69.3839455
  62.5255823  21.4705992  68.4778547  25.7384753  51.7121983  70.1228189
  26.3573289  51.9797850  70.8022642  24.8830557  51.9789410  70.4594755
  45.1219893  21.5473843  31.9854546  45.5803061  21.3822770  32.8094149
  45.5795383  21.0040593  31.3438320  55.0250053  95.3071404  47.0215511
  55.9621143  95.5021572  47.0159483  54.9677753  94.4164944  47.3675346
  44.4987011  43.7418413  66.4377165  45.4506588  43.7278557  66.5367556
  44.1659021  43.4229422  67.2766352  38.6933517  90.6241608   4.1402039
  38.9721107  90.1621628   4.9308217  39.4987464  91.0022736   3.7872121
  29.2697573  27.1087670  88.1129456  28.7462258  26.3618708  88.4032726
  28.7033939  27.5731444  87.4966526  10.6261253  28.3377528  66.6233826
  10.7631290  28.8812280  67.3993301  11.5090513  28.1264949  66.3199997
  16.2288785  22.9493618  40.0430632  15.6924915  23.6876607  39.7542143
  16.2904954  22.3827386  39.2740583  94.4949722  28.0091333  58.0132103
  94.8809719  28.7553644  58.4718800  94.0200901  28.3987641  57.2791100
  51.5500069   2.4951662  51.5323830  52.2399569   1.9230264  51.8683195
  50.8111572   2.3522082  52.1239042  10.0987422  42.5288343  70.0802088
   9.3294936  42.4515438  69.5158386   9.7433549  42.5431442  70.9688759
  33.5008264  34.1551042  34.0679479  33.9661860  34.5278215  33.3191133
  32.9443502  33.4744167  33.6894870  65.9630966  93.2941246   2.1414140
  66.1810446  92.3768044   2.3064837  66.1409092  93.7357235   2.9718363
  13.0602598  15.2877438  45.2835846  12.8046393  14.6411216  44.6257353
  12.8428805  16.1314726  44.8872280  11.6158164  57.6342535  42.9616785
  11.9551349  56.8051481  42.6245165  10.8006489  57.7732038  42.4795771
   0.8669705  24.7286510  59.5334911   0.3220744  24.2209148  60.1347589
   1.7627156  24.4587588  59.7360516  57.7656221  33.7646461  60.8788967
  57.8861284  32.9377532  61.3457537  57.8359413  33.5297537  59.9536324
 105.3115940  28.0637860  23.2023287 105.5260754  27.3553872  22.5953722
 105.2992344  27.6459026  24.0634060   6.5241861  46.2447882  58.1719828
   6.4103758  46.7549801  58.9738464   6.5411144  45.3345442  58.4676266
   5.1288748  49.5122242  66.0522699   5.0493079  50.3465080  66.5147352
   5.2512610  49.7574711  65.1351547  50.8621168  39.5838475  78.6738729
  50.3972578  40.4083920  78.5315371  50.8161831  39.1342425  77.8300858
  24.4163489  59.8159027  82.5537205  24.1369176  60.0439596  83.4403610
  25.0977659  60.4550791  82.3454952 107.7683449  43.6446571  51.2532139
 107.5250626  44.4383478  51.7297649 108.2712841  43.9606476  50.5025911
  13.0688453  55.5913305  79.1855097  13.1741738  55.1252127  80.0148869
  12.6214349  54.9665642  78.6147833   2.3758526  46.3061142  59.5842552
   2.0910695  46.4633894  58.6840391   2.1244831  45.3993940  59.7600412
  30.1636124  81.4038086  63.9852190  30.4042029  80.4963970  63.7982655
  31.0003257  81.8615818  64.0664244  15.6293380  44.8803616  89.4177246
  14.9052262  44.3684149  89.0574455  16.3534808  44.2578220  89.4832516
  42.3080158   4.5519352  51.4765549  42.2680330   4.9701101  50.6164598
  42.2493696   5.2772111  52.0984602  78.7124062  18.1772077  87.7443790
  78.7983990  17.4713624  87.1035862  78.3523607  18.9107370  87.2458458
  46.7460775  36.4854860  34.7547054  47.6180029  36.5729856  34.3695903
  46.2288141  37.1729398  34.3350863  49.9545002  24.6607232  58.1872511
  49.0292454  24.8762560  58.0703068  50.4176855  25.4717875  57.9778004
  63.0177069  84.9897194   4.4627115  63.4921980  84.2413139   4.1007993
  62.1506739  84.6438885   4.6745864  49.1510487  22.2237515  55.5751848
  48.4109640  22.8060913  55.4037571  49.5516062  22.5734234  56.3711214
  18.9254642  56.8276501  85.5699921  19.7792876  56.9411755  85.1524639
  18.3305764  56.6259766  84.8477268   0.8406883  65.3524208  81.6547298
   1.6718242  65.7890654  81.4682102   0.2982038  65.5319452  80.8868027
  29.5288587  47.3306227  56.4639711  28.8825369  46.7796612  56.9054937
  29.3783498  47.1759748  55.5314159  39.0807080  64.5080185  60.7519150
  38.1620598  64.2545843  60.6619930  39.0613294  65.4634571  60.8066368
  14.1141152  13.2339108   7.5018013  14.9579120  12.8688252   7.2354347
  13.4725451  12.7741504   6.9602847 106.3190174  58.2941580  60.6041384
 106.7786503  58.2889509  61.4437437 105.7077026  59.0277481  60.6702900
  22.9525185  40.4323053  46.8864393  22.3019481  40.3554106  46.1885309
  22.6289749  41.1445284  47.4380636  65.7844400  75.8264112  58.6706543
  66.3823652  76.2758970  59.2678833  65.1865435  75.3482723  59.2452335
   2.0556749  53.1622553  43.2524824   2.5552166  52.5855780  43.8305235
   1.2277660  52.7026033  43.1127739  40.2191639  37.9601216  64.2201614
  40.0536966  37.0229459  64.3228960  41.0211754  38.0060911  63.6996889
  17.2785556  53.8126850  27.0275331  16.6554761  54.5381021  26.9855070
  17.9399455  54.0266037  26.3694787  90.7489967  80.6565857   5.5241132
  90.5268383  79.9704170   6.1534405  91.3596249  81.2242699   5.9943289
  59.7359705  33.1957531  90.5192566  59.2810488  33.7112093  89.8532391
  59.1886473  33.2771325  91.3003159  37.2633505  36.2984085  62.5170660
  38.0177546  36.7314816  62.1176291  37.5788569  35.4217219  62.7364016
  29.9285054  30.1847768  57.2923994  30.2862048  31.0684156  57.2060061
  29.1138959  30.2059793  56.7902136  27.1062899  52.7956581  72.0996904
  26.5815377  52.1037006  72.5022554  27.8561687  52.8991318  72.6855326
  55.3337765  12.2011662  38.7874985  56.0440207  12.3822784  39.4031119
  55.4406452  12.8572631  38.0987692  53.9628029   6.2105143  31.0259151
  54.4897556   6.9705755  31.2726092  53.0663824   6.4561111  31.2547112
  10.7706881  43.8962173  36.6677403  10.8860981  44.4888592  37.4104977
  10.2823830  43.1551123  37.0262790  34.3195248  71.1595631  46.6419697
  34.6571255  71.9800711  47.0011663  33.7105799  71.4313221  45.9552622
  30.1953387  68.1153059  73.1163597  30.4315519  68.6616993  73.8659525
  29.6158862  68.6670351  72.5909472  37.6107526  58.2897425  58.3230209
  38.0701065  57.9919481  57.5378180  36.6839147  58.2531357  58.0866671
  55.5664778  59.0760565  89.1122150  56.0414743  59.5636272  88.4392548
  55.8397627  58.1672382  88.9873314  27.3055387   9.3046081  72.5498199
  26.4770651   8.8257581  72.5735664  27.1150351  10.1346493  72.9868221
  20.5431867  33.1527042  65.3309917  20.7839155  32.7570200  66.1686754
  20.2942967  34.0500021  65.5526733  26.5005064  59.8649597  65.3895473
  26.4692354  60.7771873  65.6778049  26.3741589  59.9088097  64.4417381
  28.9901567  30.0746250  53.3392525  29.8383880  30.5181599  53.3427906
  28.6076736  30.2823925  54.1917610  36.0092831  25.9907150  69.0526676
  36.4932394  25.3429580  68.5403872  35.6802964  26.6123414  68.4033775
  35.2289367   5.4842371  59.8982716  34.5958066   4.9450698  59.4242716
  35.7946944   4.8535395  60.3436565  61.9265318  21.0721231  38.7601733
  62.4720287  20.8070731  39.5007253  62.5420427  21.1766005  38.0345964
  33.3979273  32.1831465  55.0373507  33.7040734  32.5454521  54.2059422
  32.5203323  32.5485921  55.1491976  86.6913509 101.8745232  30.4470730
  86.2959099 102.1932316  29.6357250  87.3549366 102.5295353  30.6635046
   7.9799443  36.9290233  72.4325514   7.9051036  37.7448940  72.9275131
   7.0756197  36.6422224  72.3053741  23.8631845  46.4322090  45.0657845
  24.7457218  46.7209816  45.2980995  23.3406115  46.6054296  45.8488226
  32.7877808  57.0436954  56.5582132  31.9523478  56.6743612  56.2720776
  32.6897025  57.1535397  57.5040197 105.2856064  27.0781302  81.4116478
 105.6097221  27.7365899  80.7971382 104.6004105  27.5283051  81.9056988
  55.3302956  31.7329121  68.7314939  55.5857420  32.6553774  68.7375355
  56.1466932  31.2593532  68.5719109  31.9257259  25.8413506  60.2919006
  31.4021611  26.6419673  60.3254414  32.2349882  25.7951403  59.3872166
  25.4155731  78.3969212  42.7972794  26.1021614  78.0082798  42.2552586
  24.6815038  78.5272408  42.1969509   9.7825032  81.9394302  49.2682362
  10.3286827  81.3870049  49.8274803  10.1917899  82.8035927  49.3121862
  31.8945503  52.1235275  41.9450235  32.6873970  52.1450758  41.4091492
  31.5535140  51.2362337  41.8325901  21.3857031  47.8180790  35.4509044
  21.0313678  46.9451571  35.6202865  20.7931995  48.4109259  35.9131861
  30.7246280  16.9932151  50.6150913  30.0448394  17.0634019  49.9448729
  30.2463651  17.0105302  51.4440680   9.5052308  16.0835028  65.0585508
  10.0973880  16.8256974  65.1799154   9.0945446  16.2412775  64.2084503
  22.0067644  58.3572578  40.4159260  22.1211219  59.1474628  39.8879790
  22.5847054  58.4859753  41.1680222  63.6710358  51.9911051  12.9851997
  64.0774012  52.2024250  13.8257015  64.0599251  51.1529732  12.7351367
  37.8592777  26.6417098  46.9263744  37.8482819  25.7667327  47.3143482
  38.7185311  26.7082405  46.5098524  44.4043636   7.6050586  48.0793047
  45.3116608   7.7659994  47.8201914  44.1789818   8.3494484  48.6372662
  99.1905212  55.8828831  38.7344050  98.3083630  56.1768913  38.9615345
  99.0809250  55.4128695  37.9077816  30.0275588  38.5509515  56.7629480
  29.2347479  38.7815666  56.2786961  30.6965923  39.1459346  56.4243889
  33.1858158  73.3152580  36.2455773  32.9124784  73.8801861  35.5228233
  32.3716402  73.0937386  36.6975474  38.3574486  32.5517249  61.1161566
  39.2215109  32.4929214  60.7085133  37.8422475  33.0837822  60.5097580
  29.7854733  27.5148129  59.8755836  30.2884483  28.0088782  59.2281675
  28.9605522  27.9938936  59.9544287   5.5472666  61.1334372  49.7039318
   5.5896413  61.8372250  50.3513241   4.6237096  61.0914326  49.4559193
  23.0154824   9.7599208  50.4115772  23.9501047   9.5836008  50.3037548
  22.9706287  10.3745031  51.1440420  36.8545866  28.2412243  75.9305668
  37.2089696  28.8791227  75.3111076  36.6536713  27.4735785  75.3952312
  31.3790560  43.4367085  92.0442104  31.2653422  44.3363523  91.7376995
  30.8797884  42.9069948  91.4226246  53.4695816  32.1000409  65.9710741
  53.9214182  31.3136625  66.2771511  53.7031364  32.7741623  66.6092300
  28.5524678  32.1366167  44.3753147  27.7730250  32.2402406  44.9211740
  29.0547872  32.9384041  44.5203829  39.0859008  76.0304546  66.0553408
  38.5653973  76.5952063  65.4840565  38.6360979  75.1858616  66.0315323
  20.9352446  28.0050826  64.1586924  21.2669277  28.3692002  64.9794436
  21.3283181  27.1338439  64.1070271  29.3276787  41.2209749  64.9568987
  29.2374659  41.1704588  64.0052986  28.8071918  40.4881907  65.2860641
  50.9121847  69.3381119  57.0522594  50.7497549  68.5851622  57.6205206
  50.3625298  69.1816473  56.2843895  18.3886492  25.2191162  70.7192564
  18.9402223  24.4371486  70.6963205  18.1967533  25.4039121  69.7998762
  20.9487128  37.5622749  33.5099125  20.3834677  37.5528502  32.7374864
  21.8222260  37.7477598  33.1652355  43.7242699  49.4556570  63.6803722
  43.5596371  50.3779221  63.8767290  43.1183720  49.2505169  62.9683113
  24.3868971  84.4271278  47.9700804  24.2220068  83.4848976  47.9349661
  23.5732865  84.8001862  48.3093452 110.6636143  61.8996620  69.6310949
 111.2094879  61.4770365  70.2941513 111.2736320  62.1313047  68.9307690
  18.4369171  17.4673355  29.1511559  18.0567598  16.6026556  29.3062091
  18.8426471  17.3991168  28.2868862  15.5369556  52.3472071  47.3225737
  16.4022171  52.6292992  47.0259619  15.3900480  52.8363276  48.1321430
  31.9742036  47.6904964  50.8470297  31.2904429  48.2180071  50.4341936
  31.8180156  46.8023109  50.5261517  44.7827148  65.3302431  68.6953545
  45.3239822  65.9613609  69.1696405  45.3051901  64.5283127  68.6828232
  41.2605762  42.3586750  50.6506968  40.8232880  41.7669392  51.2629509
  41.1449862  43.2281303  51.0339975   4.2307773  39.6166897  55.2151394
   4.1238496  38.7093830  54.9294949   4.4678661  39.5502210  56.1401272
  36.3649273  63.3039045  51.6481066  37.2255158  63.3311653  51.2299252
  36.0731721  64.2155313  51.6553497  23.8698745  65.8595085  76.7392397
  23.8158369  66.7782879  77.0022202  24.7827625  65.6185770  76.8967819
 107.3073578  47.4878407  67.1119022 107.7081108  46.6679192  67.4006224
 106.9925880  47.8973722  67.9177761  31.7879605  81.5242481  71.0394478
  31.8474054  81.7551231  70.1124144  32.3619127  82.1511459  71.4796877
  30.5227757  45.8374119  42.5288773  31.4120722  45.6780338  42.8450823
  30.1508498  46.4532518  43.1602573  42.9800749  90.5991840  28.8113451
  43.0755424  91.1434937  29.5929146  43.2563257  89.7267151  29.0918803
  95.2191925   4.3104732  12.4041426  95.2468586   5.1352155  12.8891861
  95.3137875   4.5685551  11.4872587  37.7903008  39.2146969  64.4047022
  37.6497149  39.6582723  63.5682154  38.6770129  38.8597560  64.3415260
  41.9861746  77.2688675  48.5097599  41.5675926  76.5188074  48.9321661
  41.4763069  78.0241013  48.8028240  25.0443578  61.6925192  75.1644182
  24.4198132  61.2210417  75.7156754  25.2418208  61.0843658  74.4521046
  65.6045532  69.7094917  57.8538227  65.6612349  69.0023375  57.2112083
  64.9312878  69.4201231  58.4696245  49.7599411  49.8509789  81.4758110
  48.8857317  49.6855307  81.8288231  50.2908659  50.0670290  82.2424030
  31.0426307  77.2748995  71.0154724  30.4733348  77.0280981  70.2866220
  30.5064821  77.1353626  71.7960501  47.2553349  53.6610079  68.3410358
  46.8443871  54.4310379  67.9480934  46.5518856  53.2400084  68.8351488
  35.0452280  55.6035948  75.7540512  34.8717666  55.2039337  74.9017525
  34.2468405  55.4478216  76.2585783  22.1822214  92.6400089  50.2086496
  21.7456627  92.8662395  51.0299110  23.1021333  92.8581047  50.3584146
   6.3499892  69.3526649  25.0107288   5.7276779  68.9597940  24.3986726
   6.5738094  70.1957417  24.6165776  49.8351336  63.6322308  61.6661167
  49.7999620  62.7734709  62.0874548  50.7691860  63.8342667  61.6117382
  48.9024353  33.9200115  53.5339737  48.9532471  33.3207011  52.7893400
  47.9726171  34.1361189  53.6044741   4.9452350  57.3564959  34.6267700
   5.3399944  57.1659088  35.4776955   4.0200776  57.1372509  34.7374368
  14.5564497  92.5596619  43.3174038  13.6434996  92.4198055  43.0660152
  14.6900511  93.5024452  43.2196999  48.5189772  61.6583300  66.8229008
  48.9281750  61.9507647  66.0084915  48.7278557  60.7256222  66.8744469
  44.3126678  47.1846199  79.3272209  43.7444830  47.5672054  79.9958181
  43.7573624  47.1182632  78.5503912  35.4877234  83.3672905  48.6144304
  34.7231650  83.3594799  49.1902924  36.1244559  82.8037834  49.0540409
  36.4737225  58.3541012  53.8128328  36.9539666  59.1613245  53.6284685
  35.6845737  58.6440897  54.2704153  23.6274981  65.7561970  73.9381599
  22.9517007  65.2513647  73.4857559  23.2856393  65.8736849  74.8244810
  47.4194193  72.8890753  61.7590189  46.6872740  73.3779526  62.1347761
  48.1626034  73.4896708  61.8155479  53.6153936  71.2140179  73.7516308
  53.8425970  71.0762119  72.8320551  53.0006123  70.5090046  73.9546967
  23.9104152  11.1807108  33.6214805  23.4838939  11.2188399  34.4775510
  24.1873121  12.0810866  33.4515285  28.6231637   6.4146036  74.4982672
  27.7430367   6.1537927  74.7695303  29.0339136   5.6015885  74.2041159
  15.2912176  74.4823170  61.8794203  15.1443696  73.5517502  62.0488501
  15.2155232  74.5675898  60.9290361  47.0684576  93.4699154  60.5180073
  47.6409912  92.8840828  61.0132217  47.4069214  93.4357262  59.6232986
  58.4929562  91.2550354  75.1831770  58.7574005  91.8519497  74.4831800
  57.5524616  91.1342239  75.0523806   2.8261083  58.1923819  72.2609806
   2.1773162  58.8876438  72.3701191   3.6493701  58.6552906  72.1054459
  51.6212702  43.4368229  57.2480488  51.3757849  42.5455856  57.4963760
  51.3424253  43.5167027  56.3358545  24.6386194  85.6237221  25.0061846
  25.5911803  85.5933666  25.0952888  24.3694949  84.7051811  24.9972987
  47.4780130  61.7750692  30.7941198  46.8599844  61.3842773  31.4118195
  47.5767612  62.6788521  31.0935593  44.4703054  59.7376728  49.5463562
  44.4297743  59.8452473  48.5960817  45.2238131  60.2633190  49.8149776
  34.9283552  69.3056726  70.4674387  35.6658936  69.5634222  71.0204601
  34.4192576  70.1087761  70.3575325  32.6011682  63.9175081  46.9348335
  32.9855156  64.1896105  46.1014891  32.9495287  64.5394135  47.5736713
  28.8293052  26.2479115  44.6946335  29.7476315  26.0147953  44.5583916
  28.6785841  26.9841313  44.1017628  37.2831655  20.7957721  43.2849789
  37.6101661  21.3197708  42.5537252  37.2621369  21.4032578  44.0244007
  43.0721951  34.4190335  46.5005255  42.5495672  34.0006661  45.8163738
  42.5005960  35.0994968  46.8561602  12.3558211  69.6463346  21.4937282
  13.0636454  69.4211483  20.8899856  12.3224378  68.9128923  22.1078825
  38.7048030  52.6511431  56.6434908  37.9353571  52.4546051  56.1091137
  38.3543706  52.8032589  57.5211525  34.4815707  64.7674894  44.8278379
  34.5969892  65.6137180  44.3956184  35.2236891  64.7023344  45.4288769
  48.8334465  64.1275215  69.2383146  48.2316303  63.5281277  68.7969732
  48.5691929  64.0982580  70.1578522  56.9559145  56.8665695  69.7548389
  56.7249870  57.1134853  70.6503487  57.3969889  57.6383305  69.3997717
  31.7413282  46.5537596  78.3178234  32.1766853  47.4046087  78.2653522
  31.8642831  46.1679125  77.4505043  31.7750382  38.0205703  29.9600625
  31.0250878  37.7785325  30.5034089  31.8124723  38.9754510  30.0151491
  31.2711930  18.2749593  66.9791508  31.6445231  18.7857223  67.6974678
  30.7718277  17.5824523  67.4119329  44.0367365  61.2289429  52.7223778
  43.5470057  61.4742756  51.9373894  44.9236727  61.5510988  52.5617886
  51.4376640  23.8215303  27.5794411  50.5069494  23.6124921  27.6588130
  51.4843369  24.4306850  26.8425655  40.1804304  72.9863834  73.1069565
  40.3962183  72.3437738  73.7827682  39.2303348  72.9220772  73.0099392
  69.0058756   5.1443243  55.3081942  69.3498945   4.2540509  55.3809738
  69.3365192   5.4608810  54.4675398  58.4587526  32.3841524  39.7910357
  58.6637545  32.3868918  40.7260227  59.1130304  31.8024111  39.4040871
  31.9178438  48.3716869  46.1320877  32.2130394  48.2263279  45.2332163
  32.7236342  48.5140181  46.6287518  15.1291442  82.0153332  43.3821630
  14.3639243  82.4842930  43.7149429  15.5803072  82.6542091  42.8303385
  41.2246370  82.4750519  76.4392614  41.5857267  83.3564663  76.3446236
  41.1237574  82.1598339  75.5411005  49.1125917  71.0032606  65.0509453
  49.3416548  71.7687654  65.5779791  49.7564840  70.3400183  65.2994299
  12.1436262  61.8092585  61.0994291  11.3623154  62.1790075  60.6882429
  12.7639508  61.6987038  60.3788662  39.9499941  31.1879539  23.9266086
  40.5360556  31.6604185  23.3353877  39.2570329  31.8163085  24.1296053
  54.0811539  55.9493017  66.6743803  53.9354849  56.1521006  67.5984383
  53.8416195  55.0263071  66.5910816  29.0417743  68.2611418  57.3188496
  29.5765352  67.4674511  57.3366785  28.4099388  68.1085014  56.6162014
  16.4956892  45.4957294  40.0675058  16.0992205  46.3517570  40.2295732
  15.9242141  45.0862074  39.4179344  15.2780175  79.6004391  67.9616070
  16.1025786  79.2437506  68.2919073  15.5180478  80.4449654  67.5803041
  36.7031217  35.2427030  79.4657755  37.1558642  34.3999171  79.4968843
  35.7783484  35.0220442  79.5768309  33.6672997  81.4147949  44.3503523
  32.9003716  81.9818592  44.2697668  34.3995643  81.9599628  44.0625906
  36.6721630  30.4949427  58.7454605  36.2568498  30.2337289  57.9235649
  35.9436798  30.7509708  59.3111420  15.7857347  34.0817022  55.3652954
  15.3852069  34.2133570  56.2246418  16.5839493  33.5854912  55.5465651
  35.5127692  64.2922688  30.1276278  34.9013305  64.8135519  29.6073961
  35.8195329  64.8914480  30.8081532  58.5201359  78.7064695  64.7954988
  57.7269363  78.1707335  64.8032999  58.6571121  78.9449453  65.7123423
  21.6356874  40.6872177  25.6783795  22.0486116  41.5446186  25.7812572
  20.7080722  40.8455420  25.8535790   3.1135964  78.3577871  74.0318394
   3.0348176  79.0301609  73.3551264   3.2203877  77.5401258  73.5457706
  50.6049299  59.4959974  60.6997156  50.1217985  58.7952662  61.1376572
  49.9418688  59.9619913  60.1903725 102.6927662  64.2812681  53.7088251
 102.2550869  63.6937666  53.0927849 103.5319424  63.8574839  53.8889170
  43.1899548  64.9005842  57.9614449  43.8876534  65.5470419  57.8540134
  42.6872301  65.2134895  58.7134981  39.6316338  51.6880369  51.0892820
  40.4225969  51.9068766  51.5819454  38.9138651  51.8673801  51.6966343
  49.8107338  46.1561584  80.9750557  50.6632519  46.1850882  81.4093494
  49.2864370  46.8134403  81.4325809  26.6892481  61.7150211  52.9015207
  26.7089391  62.5870085  53.2958412  27.4909115  61.6696310  52.3804569
  49.0321493  12.1460915  40.6094933  49.2642546  12.0890105  39.6826172
  48.3306980  12.7966273  40.6411266  71.1360073  74.1279364  71.2391090
  70.8763552  73.2867670  70.8632851  70.3257942  74.6366787  71.2702322
 105.9935284  60.8685827  57.3751783 105.3004456  61.0999918  57.9934931
 106.3029957  61.7088079  57.0368147  46.6174507  73.8843250  73.4682369
  45.8318424  74.4265890  73.3975172  46.6965771  73.6981964  74.4038248
  45.9662580  77.8531981  47.7409887  46.6474199  77.6656866  47.0951653
  45.1536417  77.8656530  47.2352839  29.1016769  36.7740917  71.2258482
  28.1566024  36.7572141  71.0749149  29.4580650  37.2284746  70.4624653
  47.8992653  75.0603628  30.4978800  48.0306244  74.1312408  30.6868362
  48.0240011  75.1322985  29.5515728  10.5817056  29.7163534  48.4978056
  10.1207900  30.5148292  48.2404613   9.9887913  29.0070224  48.2497358
  34.7519851  46.3490009  27.2086573  35.5800676  45.8766937  27.1223879
  34.7527909  46.6711807  28.1100059  36.3648176  40.6669950  66.2839222
  36.6849184  40.1040411  66.9887972  36.8820763  40.4118538  65.5200005
  13.7601888  52.7263260  42.0572329  14.1759229  52.6316500  41.2002420
  14.4686592  52.5816298  42.6844215  56.7029572  13.1662619  48.2605886
  56.2477398  12.4619770  48.7221003  57.1478701  13.6570072  48.9515686
  16.8929660  27.7908182  59.5397758  17.7384806  28.0259705  59.9219322
  16.8369699  28.3152986  58.7410212  44.1314936  47.8792572  56.2175226
  43.3131075  48.1344080  55.7916403  44.7351933  48.5968781  56.0257006
  45.5355597  55.4166794  75.9736872  46.2851477  55.4617834  75.3801250
  44.8107100  55.1222992  75.4221773   6.2342882  87.8503799  62.9397678
   7.0074618  88.3997440  63.0687380   6.0432625  87.9214668  62.0045185
  38.6980534  18.3829284  47.9029036  39.2399073  19.1050303  48.2210112
  38.1576681  18.7734878  47.2161150  59.9957371  32.9366183  55.6944561
  59.1833353  33.0591488  55.2033186  59.9607658  33.5991836  56.3843966
  47.1476316  32.8862858  87.0638657  47.6609182  33.4070134  87.6816082
  47.6625443  32.8956366  86.2570190   1.7166467  46.0922003  25.5184150
   2.2190525  46.9067764  25.5015445   2.1598402  45.5509329  26.1717486
 105.1142979  52.9364395   0.4346614 104.1608906  52.9272366   0.3500130
 105.2929974  53.6446810   1.0532828  46.3842297  73.9424849  68.4134293
  46.4409637  73.8003922  67.4685383  45.4922724  73.6808252  68.6418533
  26.4507389  73.6388397  33.0609345  27.2987938  74.0575933  32.9136872
  26.1732125  73.9556456  33.9204955  19.5376658  66.4752769  44.3463707
  19.4018304  66.2255526  43.4323549  19.9581265  65.7123804  44.7431469
  59.0016508  42.7182961  55.8753204  59.0577984  42.0039654  55.2406454
  59.3280125  42.3396301  56.6916084 103.7163734  36.9499898  65.9952116
 104.1926670  37.5899863  66.5241480 104.2423916  36.1523867  66.0531664
  57.9792595  33.1252551  58.1113195  58.5392141  33.8915753  57.9870987
  58.5851812  32.3842740  58.1171560  46.7569447  62.3052597  70.4744768
  47.3387051  61.5810251  70.2436638  46.1512995  61.9313431  71.1144876
  19.4574106  34.6876192  49.6933603  20.3684759  34.4089413  49.7857285
  19.0603149  34.4935155  50.5424023  38.6496401  43.6883879  48.6513615
  39.0668035  44.0130520  49.4493628  38.7844944  42.7411366  48.6789560
  49.0500116  66.9217968  66.3267374  48.9255762  66.1851025  65.7283878
  48.4282875  67.5837374  66.0241985  20.6477880  31.7303634  44.3171644
  20.2437687  31.5262723  45.1605797  21.5208483  31.3414359  44.3694496
  40.5620098  33.5556817  74.7003603  39.7961998  33.1643772  74.2800617
  41.1974859  33.6587405  73.9919949  18.5012949  89.1979790  11.1315536
  18.4081471  89.6967602  11.9431961  18.6568809  89.8613453  10.4592729
  13.2794058  52.6171160  36.5329075  13.2630682  53.2832956  37.2200561
  13.5298550  53.0947924  35.7421255  31.2319064  48.6757803  28.5092664
  30.8115482  49.5174026  28.6859083  30.8836818  48.0886221  29.1802502
  10.3027976  66.7546272  70.9654808   9.6542537  67.4184132  70.7309389
  11.1220837  67.2414112  71.0551786  60.9552526  87.9121208  59.3585539
  61.1078787  88.8287258  59.1288328  61.3033342  87.4180222  58.6162996
  32.7556729  18.7459981  84.2061710  33.1522894  19.5213139  84.6034241
  33.4927058  18.2681561  83.8257980  21.5847993  68.3585262  39.0910697
  22.0177841  67.5248146  39.2745924  21.2753749  68.2742834  38.1891870
   4.1346246  73.8293791  58.5192156   3.8717046  73.3281755  59.2911577
   4.4620860  73.1710672  57.9063320  20.3230238  45.3715229  91.9368553
  19.9230409  46.2384462  92.0053577  21.1583853  45.5273104  91.4962482
  37.7093101  43.5830927  40.4582644  36.7985773  43.3280706  40.3107500
  38.2135892  43.0219698  39.8691344   0.7448071  99.8377705  36.9879866
   1.2868722 100.5074215  36.5708899   0.5229834  99.2336464  36.2794304
  40.7921505  49.5030785  52.6303387  40.0680923  49.4206190  52.0097160
  41.1185837  50.3934956  52.5006008  58.0506945  82.6260376  56.0973358
  58.7810516  82.9576015  55.5749655  57.7809572  81.8239498  55.6499815
  64.4912624  72.1694136  25.9967065  65.1420164  72.7422762  26.4023948
  63.8248777  72.0473289  26.6729164  10.3821516  55.1140833  87.1053505
  10.8110130  54.9071026  87.9356861  11.0448742  55.5910969  86.6058636
  40.0875187  44.8456764  53.7455225  40.9625769  45.1746178  53.5398531
  40.0884867  44.7410345  54.6969843  45.6850004  36.2261605  89.0337467
  45.8385515  35.9365821  89.9330807  46.5181541  36.6098475  88.7601185
  45.2506447  88.9075470  49.3698978  44.6753740  89.3552589  49.9902630
  44.8019648  88.9855576  48.5279751  30.1556906   0.1985619  24.7649503
  30.3823599   0.9658405  25.2904391  30.6558928  -0.5169037  25.1575661
  53.3604336 102.8343201  48.4487343  52.8945494 102.3655224  49.1411257
  54.1733074 103.1256104  48.8617992  38.7102127  78.8783932  41.4415264
  38.0266571  78.8876009  40.7715273  39.5113564  78.6643696  40.9634161
  63.9436865  93.8600159  49.5775461  64.0067339  92.9879284  49.1880369
  64.8357439  94.0610123  49.8605156  44.7858381  93.0276871  49.4281626
  44.1140032  92.3853111  49.1996336  44.5007038  93.8350296  49.0002298
  38.7603593  89.9344349  42.8529072  38.8070917  89.6687031  43.7712908
  38.5826778  90.8744812  42.8843212  53.7257528  73.1890678  62.3198223
  53.6875916  74.1329908  62.1655846  53.9708281  72.8176165  61.4723587
   0.0807108  10.3392005  79.8813152   0.3663971   9.7224075  79.2073870
   0.8738955  10.5320990  80.3811932  46.6681385  51.8435812  65.9976196
  46.8542385  51.9144917  66.9338751  46.4233208  50.9269476  65.8708334
  29.2403674  64.9554205  29.7129536  28.6975336  65.3980064  30.3653932
  29.7064638  64.2809010  30.2069259  42.4239349  83.4156704  52.2505283
  43.3194304  83.0787754  52.2217894  42.5252438  84.3499279  52.4325705
  63.3391809  77.0327663  25.2082610  63.9638138  77.4511051  24.6157575
  62.5308657  76.9708347  24.6993208 100.1524448  98.4619617   8.5661882
  99.8687840  99.0348053   7.8537136  99.3915653  98.4036636   9.1440248
  71.0076332  74.9186468  47.6387596  71.4831400  74.4633770  46.9438839
  71.6856527  75.1782894  48.2625484  41.5272045  89.7167206  49.4003820
  41.8343592  89.8839092  50.2914143  42.3242521  89.7053909  48.8704586
  45.5877256  75.4327440  11.9904721  45.7937670  75.4583549  12.9248834
  44.9483013  76.1342430  11.8668866  36.5403390  89.5614910  47.9564524
  37.1830535  89.6087074  48.6642075  36.8128276  90.2409554  47.3397589
  42.0068598 102.4649525  62.2306633  41.6278124 103.2625484  61.8613434
  42.9486799 102.5590420  62.0880079  41.3008642  71.3418055  43.5677814
  41.6490984  71.2566996  44.4553185  40.9933853  72.2468472  43.5168982
  12.9477274 101.8044186  63.1194782  12.3352873 101.1445236  62.7943897
  12.4009657 102.4167919  63.6117077  18.5266721  54.2876387  74.8005533
  18.3801019  53.3873272  74.5103979  19.3080926  54.2376328  75.3511095
  42.4064302  70.8081198  60.1283979  41.5148640  70.8105564  60.4767323
  42.5199032  71.6819668  59.7545671  58.5289240  50.5700874  69.5743895
  58.9315653  50.7594585  68.7268925  58.9432383  51.1854887  70.1792526
  51.0598516  92.8587627  49.7726774  51.4167356  93.6321831  50.2093506
  50.9677458  92.2105885  50.4709768  15.3646386  83.6983681  46.7085123
  14.6704412  83.4744740  46.0886812  15.4120111  82.9452324  47.2973871
  47.4212599 104.3776608  77.8846979  48.0257082 103.7215424  77.5377417
  46.5568876 103.9750767  77.8009462  32.3259211  79.8628616  60.7745123
  33.0815434  80.2196026  60.3076077  32.1980619  78.9936829  60.3945065
  32.9132819  68.1637764  42.3826551  33.3122396  68.5456228  43.1644821
  33.6037612  68.1975317  41.7205906  18.6594224  99.7360611  73.3185291
  17.7436829  99.8028755  73.0479956  19.0652156  99.1785049  72.6546860
  40.7011366  69.5748997  54.3325472  40.1542044  70.3508949  54.2103624
  41.5307283  69.9166679  54.6660185  75.7729864  -0.1357411  49.8715544
  76.0551023   0.7643964  49.7090912  74.8182154  -0.0833296  49.9151421
  31.3830709  86.0704994  62.5307608  31.4856839  86.9986820  62.3205709
  30.6257677  86.0396099  63.1153727  34.0085649  70.8842754  50.3043509
  33.7761664  71.7246246  49.9093342  34.9535465  70.9395790  50.4464245
  40.0821018  97.5224018  52.1972322  39.3604445  98.1494331  52.1495247
  40.8712578  98.0639458  52.1831083  37.1571541  58.1902647  62.3141623
  37.3582411  59.1257429  62.2882557  37.1470952  57.9731655  63.2463598
  34.3722820  71.2218428  37.6885605  34.2466736  71.6438007  38.5385084
  34.1099262  71.8854761  37.0505977  67.3457670 100.0569344  80.4246807
  66.5666723  99.7755146  80.9043121  67.0024443 100.4904938  79.6434021
  72.8967953  70.8719301  52.4280739  73.7271976  70.9586573  51.9599485
  73.1346607  70.4758310  53.2663774  17.2310197  49.2279434  43.5132885
  17.6478779  49.9920940  43.1151247  17.9599714  48.6583519  43.7591124
  37.5937223  71.0285473  44.3728638  38.1712413  70.6432009  45.0318098
  38.0973148  70.9879732  43.5598564  71.9293594  81.0582638  56.1988115
  72.8057432  81.1299706  56.5770197  72.0564604  80.5573845  55.3930855
  48.6854362  53.6350203  65.3837681  48.3429956  52.7459145  65.4757023
  48.6445141  54.0000343  66.2676954  33.3667088  75.4028225  77.9018497
  32.6821756  75.6696796  78.5153913  33.6745763  76.2225246  77.5151491
  37.1579957  80.2758312  61.1818266  37.3357582  80.0860977  62.1030426
  37.5548339  79.5461512  60.7060957  47.1187592  66.3581991  70.1226854
  47.9692841  66.0482931  69.8115683  47.1657658  66.2712002  71.0747623
  37.6639962  73.6482239  73.1580877  36.9127250  73.3769035  72.6306343
  37.4492049  74.5369053  73.4415436  46.6301107  64.4016600  61.2291718
  47.0549440  64.3674517  62.0862484  46.9879580  65.1872730  60.8156633
  84.3835640  26.9707918  62.3342752  83.5634708  26.8591738  61.8534184
  84.8837566  27.5981903  61.8123436  79.2091417  77.2432566  12.4977756
  79.6288300  77.4932194  11.6746032  78.2712173  77.3038864  12.3165023
  37.2277951  81.6389561  49.7019720  37.5814891  80.8159637  49.3646002
  37.8626442  81.9202900  50.3607941  48.2467318  60.0052691  69.9199581
  48.4873676  59.5930958  69.0902376  48.6650419  59.4616938  70.5876160
  46.4615011  73.2730055  65.5822372  47.4047327  73.4356976  65.5912447
  46.3775492  72.3670149  65.2849770  50.4406786  74.4657230  76.5962029
  49.9915791  73.6644363  76.8654299  49.7515106  75.0102663  76.2157440
  20.2935863  59.5866919  54.0993595  21.1794114  59.3042374  53.8718462
  19.7246802  58.9104557  53.7315607  42.1481895  62.0955849  57.5817156
  41.9215679  61.9777012  56.6592312  42.4444771  63.0038118  57.6413965
  93.7790775  80.6391048  33.2700682  93.0782700  81.0013199  32.7279425
  93.7904835  79.7064352  33.0550718  52.8101683  74.2212629  77.9160070
  51.9411469  74.4631004  77.5957727  53.2306623  73.7952185  77.1690798
  60.8383322  89.0122604  32.7152467  60.6416321  89.9480629  32.6726747
  60.7379150  88.7882519  33.6404347  37.3117828  63.2405281  34.9429631
  37.2739363  62.3169518  34.6943569  36.3980389  63.4881496  35.0843287
  81.4941788  58.0765629  41.2618828  81.4594936  57.1216440  41.2056351
  80.7581997  58.3748579  40.7274818  53.1805086  59.9024153  59.8605013
  53.3064556  59.4243956  59.0408278  52.5672436  59.3635273  60.3602409
  45.9794426  82.8970909  77.1428823  46.5449572  82.7817059  76.3792610
  46.2846565  83.7096691  77.5463581  74.4494152  81.2619495  30.0762367
  74.3230104  82.2102928  30.1062155  75.3792000  81.1380959  30.2669907
  41.9169617  68.8571072  62.7784109  42.3959112  68.0850983  62.4770164
  41.0497284  68.5252905  63.0108786  76.4450693   5.2802390  76.2431335
  77.2654676   5.3017974  76.7357969  76.4515352   6.0892731  75.7316113
  14.4759202  65.8545351  65.1788664  14.1878915  64.9763823  64.9296141
  14.4086981  65.8666563  66.1336279  35.9171343  90.3841114  54.7483683
  36.3914967  90.9242344  55.3804111  35.8739805  90.9223938  53.9580345
 111.1871719   4.6471462   1.2337400 110.3829384   4.7431317   0.7236096
 111.1101532   5.3018451   1.9277640  25.8103991  60.1566458  41.1716175
  26.1455131  60.9830284  40.8237314  26.5622830  59.5647144  41.1488104
  35.3946209  81.4694214  82.6525402  35.4667521  82.2919655  83.1367397
  35.2219939  81.7371750  81.7499161  30.4473400  69.6161318  59.6027899
  29.9247074  69.2884541  58.8708639  30.2113628  69.0502501  60.3378582
  76.4537668  68.6266613  51.2136555  76.0812283  69.3333244  51.7409801
  77.1938324  69.0305662  50.7604551  41.3953876  52.7023840  56.4212322
  40.4776096  52.5665188  56.1857367  41.4013815  52.6903439  57.3783398
  85.3968811 106.0093689  64.4735193  85.6913090 106.9162273  64.3889856
  86.1713982 105.4859161  64.2676926  50.8155441  97.3159599  54.0845203
  50.6518030  97.5392818  53.1682539  51.1042261  98.1368828  54.4832373
  16.7314041  87.0433617  18.6508226  15.8295822  87.1836662  18.3622670
  16.6475487  86.5565014  19.4706810  44.0556669  80.7781601  45.6054211
  44.1001606  80.0432014  44.9938059  44.6787882  81.4165688  45.2584410
  34.9628901  85.3381348  31.1916113  35.1183820  86.1483955  30.7063031
  34.0343714  85.3712463  31.4218044  13.6331117  38.7160921  46.1530304
  14.1258466  39.2452288  45.5257654  12.7350712  38.7265396  45.8218956
  47.5633097  88.4938622  51.1769629  46.8273830  88.4460354  50.5667496
  48.2209063  87.9056740  50.8056974  82.8167725  89.1790962  48.6637402
  82.3600960  89.9372387  49.0282965  83.7452316  89.3982983  48.7420797
  51.2186241  79.3776369  50.2271032  50.9363461  78.5322571  49.8779821
  51.8373299  79.7106791  49.5770884  44.3183804  67.3527193  60.2613926
  44.3998957  67.1663332  61.1967230  44.6390533  66.5604448  59.8304558
  53.5276175  83.9056110  54.6289492  54.0339661  84.6891403  54.8432350
  53.6447191  83.3305264  55.3851271  42.4998379  65.3510904  70.4230547
  42.4292755  66.2819862  70.6344366  43.2761431  65.2900505  69.8664141
  63.6670113  86.7767143  54.3888950  64.3806887  87.3891449  54.5673084
  64.0976715  85.9265614  54.2994785  35.9027886  78.5519886  47.4666786
  35.3598142  79.2703676  47.7912474  36.4777374  78.3357477  48.2007790
  75.0909853  82.4391079  62.6155424  74.1589546  82.2478104  62.5108814
  75.4957390  81.5844536  62.7637768  29.1106915  86.0040283  64.1287756
  28.7899160  86.6081715  64.7983646  29.0792370  85.1438236  64.5474482
  62.5121832  79.7632933  59.1723633  61.6198254  79.4269562  59.2548466
  62.4764824  80.3554249  58.4211397  23.5908580  76.9603300  33.3273554
  23.7260175  76.6267681  34.2143178  23.9373088  76.2734699  32.7577710
  56.2136936  80.7651901  57.7236176  55.5638981  81.0037708  57.0624971
  56.5656233  81.6022205  58.0265474  55.5757332  70.1122713  75.2331638
  55.0719929  69.3032122  75.3220272  55.0089645  70.6927204  74.7251463
  55.3292227  60.5930519  63.6157942  55.5736113  60.7099247  62.6977253
  54.8112583  61.3699245  63.8265276  31.9223928  60.3547621  57.3410130
  31.2721992  59.7392416  57.0024633  32.1302533  60.0264978  58.2158089
  46.7844009  79.8365164  51.8744564  46.3142776  79.2908621  51.2439966
  46.4857769  79.5262289  52.7293158  72.7944136  81.3258076  43.5969639
  73.5692024  81.8679428  43.4485483  73.1330347  80.4317093  43.6434889
  86.5969467  86.0880184  47.8207827  85.7757187  85.7462025  48.1743050
  86.3271618  86.6858768  47.1236324  58.5627604  85.5723572  60.0231409
  59.0586090  85.6063843  59.2050886  59.2108822  85.3351307  60.6863785
  73.9626074  68.7090302  49.8877716  73.5691309  68.7735605  50.7579708
  74.8946667  68.5705090  50.0560331  24.9901271  99.9413586  80.7067871
  24.1276145  99.7602940  80.3332710  25.6048703  99.7261620  80.0053501
  46.3103628  57.4072313  56.4768744  46.8956137  57.7533054  55.8031178
  46.4140749  58.0072451  57.2154284  56.1438704  82.1458912  49.5789099
  55.3665686  81.8788433  50.0695419  56.3078785  81.4202976  48.9765406
  46.4015818  77.9312897  36.5566707  46.2267780  77.2465086  35.9111118
  46.0927820  77.5640821  37.3849440  42.4314690  36.8398595  60.2583027
  42.5710201  35.8932972  60.2304220  42.8475475  37.1668959  59.4607067
  48.8553619  79.1694164  64.8288012  49.2655230  79.0631771  63.9704800
  49.5900059  79.2579317  65.4360056  31.5711164  80.7277489  42.8821373
  31.5880632  81.3591766  42.1629381  32.2478604  81.0340881  43.4857988
  38.1950045  76.8493176  79.7808743  37.5561523  77.0524311  79.0976143
  38.0956697  75.9089994  79.9297619  64.8548365  77.5036955  88.3265972
  64.4195318  76.8678570  88.8944435  64.1884518  78.1697989  88.1578827
  35.0953817  43.4886789  39.7832179  34.4023371  44.1351891  39.9171996
  35.0737834  43.3055687  38.8439417  52.8365183  62.3491192  61.8609905
  52.7417564  61.5475512  62.3755217  53.6897230  62.6989985  62.1176243
  56.7360592  97.8864384  45.9743834  56.2607908  97.8118992  46.8019056
  57.2737980  97.0955372  45.9349394  16.0245216  85.9430790  56.9616508
  16.2926483  85.5360985  57.7854872  16.8351316  86.0226345  56.4588451
  53.0807590  72.2258615  64.9122715  53.8140059  71.6108418  64.9305248
  53.2046127  72.7222776  64.1032839  44.4736004  61.6854334  31.9611955
  44.8056364  62.5636625  31.7749143  43.7514639  61.5665483  31.3442564
  58.2851267  70.4611015  73.6185837  57.3292112  70.4165363  73.5969257
  58.5122728  70.2892160  74.5324183  67.9393435 103.1792641  61.1998320
  67.2506809 103.0512619  60.5474520  68.6091042 103.6892033  60.7441902
  48.3573818  79.0614891  28.8527250  48.6866045  79.6290207  28.1557655
  49.1142941  78.5355139  29.1109133  47.9497862  87.7293587  84.4910336
  48.2324028  87.9241562  83.5974884  47.8041363  86.7833138  84.4952965
  43.3132696  80.3541565  50.0695467  43.5016060  80.6193447  50.9697866
  43.6359692  81.0788441  49.5338917  56.2684917  79.9735928  48.0192041
  56.3660383  79.1797066  48.5450029  56.9196892  79.8817444  47.3236895
  68.7729168   4.2953017  62.9926872  68.0953693   4.9331564  62.7683973
  69.5320702   4.5595163  62.4729681  69.5173597  70.7560205  32.6250792
  69.7210026  70.0535345  33.2425547  70.1240921  71.4599180  32.8544927
  59.1714573  77.0204544  72.1208239  58.3196878  76.5980053  72.0100975
  58.9951849  77.9523897  71.9917822  94.8489857  11.3477290  55.3351450
  94.0503693  11.8384171  55.5292273  95.3209305  11.3194144  56.1674356
  43.3044291  72.5322771  51.4348698  42.8799582  71.6778183  51.3577080
  43.9300203  72.5552082  50.7107544  18.5881209  13.5350215  56.4299154
  19.5359182  13.6218083  56.3280344  18.2687151  13.3458543  55.5476284
  71.7035723  93.3613586  89.4746208  70.7733727  93.3981705  89.2519093
  72.0045328  92.5292969  89.1094780  65.3815174  91.3330746  65.4084730
  64.9842644  90.5713367  64.9863625  65.9357405  90.9639740  66.0961008
   9.7538757  37.4354863  13.8343000   9.9191320  38.2478476  14.3128312
   8.8668019  37.5369596  13.4892857  63.8554525  86.3475227  68.6692667
  63.1042099  85.7585526  68.5987473  64.4705820  85.8841228  69.2376900
  72.3160744   3.7089476  33.4651446  72.9488039   3.9556587  34.1396904
  71.9153929   4.5363459  33.1984949  94.6269512  98.4877777  69.7965097
  95.0339317  98.5340118  70.6616449  95.2586937  98.9066029  69.2119455
  34.8417687  88.5428429  51.6729546  33.9457321  88.3220100  51.4188194
  34.8968124  89.4913769  51.5567732  54.8029518  90.8262825  78.8725042
  54.2332602  91.4035511  79.3808746  55.6263924  91.3084030  78.7968206
  28.3291674  54.9550581  45.0101423  28.0325651  54.1069984  45.3403807
  29.0657091  55.1879072  45.5753994  44.6835804 106.6498375  63.5468435
  45.1607037 106.7803097  62.7273560  44.8407221 107.4514961  64.0457296
  56.3542604  82.2512531  61.8420029  57.1370125  82.1726608  62.3873043
  55.8757448  81.4357281  61.9909286  77.2478914  64.2461109  79.2954493
  77.3880625  63.8027954  78.4587574  77.5575113  63.6221123  79.9519491
  61.8809223  65.2289057  24.8777652  61.5909052  64.4955492  24.3352652
  62.2418451  65.8596516  24.2547655  55.6775045  73.5588598  46.0246229
  56.2088966  74.1333914  46.5757704  54.8495674  73.4723186  46.4971304
  83.4179306 103.1169987  53.1192923  83.4257889 104.0636063  52.9774952
  84.2975807 102.8306675  52.8734064  26.7944837  23.3033228   2.4510035
  26.6858053  24.0439272   3.0476001  27.6972198  23.3758759   2.1411058
  25.3269696 104.4843292  90.9132957  25.7775187 105.0002956  90.2447033
  25.4524922 104.9794197  91.7228413  87.5487232   4.5246372  62.5389719
  86.6765022   4.6038628  62.9252338  87.9890919   5.3418916  62.7722120
  44.7440100  81.4372253  24.6936321  45.2397442  81.7401314  23.9328885
  44.0368223  80.9087467  24.3237376  93.8151455   5.6006074  54.0955877
  94.4802761   5.6052881  54.7839260  93.3363724   6.4201427  54.2195797
  65.0105491 107.3922690  78.0721855  64.7851386 106.4805282  78.2569838
  65.6593147 107.6184129  78.7386656  75.8517170 100.6942463  73.9410782
  75.3109694  99.9057674  73.8949203  76.1099291 100.7540798  74.8608494
  55.3645611 101.8415546  55.6886625  55.5362082 101.9826984  56.6197109
  54.8156500 102.5823021  55.4313278  33.3329916  86.3036919  44.8949718
  32.8444934  87.1085644  44.7223663  33.9361119  86.5362930  45.6009293
  75.7290220 107.4708843  12.9976320  75.9759283 106.6674042  13.4555483
  75.8179283 107.2545528  12.0694470  50.9163904  55.3888559  64.9793053
  50.1789808  54.8068953  64.7955132  51.5686750  54.8249960  65.3950214
  26.1078191  41.5787172  33.3595514  26.3064313  41.5983248  34.2957139
  25.1829267  41.3360071  33.3159614   9.7314483  97.9579544  68.5615015
   9.5038164  97.3042107  69.2225885   9.1381282  98.6891365  68.7334681
  22.5810409  95.0375843  55.8886099  21.9745922  95.3867722  56.5416956
  23.2095981  94.5239353  56.3958740  62.1904802 103.2423019  30.1263499
  61.9597626 104.1242981  29.8346615  62.1091938 102.7013302  29.3408680
  43.0684519  96.8717670  59.7120571  42.7641344  95.9715366  59.5971632
  43.9984798  96.7853355  59.9213648  83.0892849  86.7457771  57.7061176
  82.1671200  86.8742466  57.9282522  83.2200623  87.2682190  56.9148016
 112.6205063   8.9417118  37.0847344 113.3271885   8.3073205  37.2046614
 112.7776527   9.6051538  37.7565861  28.3126259  79.1724586  77.4260235
  27.8017426  79.8502302  76.9834661  29.1281891  79.1233397  76.9273520
  43.2960129  90.3816414  44.6898413  42.7797699  89.8663425  44.0700054
  43.3017540  91.2647915  44.3207312  41.3165855  22.9236579   2.8853908
  41.2391901  23.2332850   1.9829646  42.2287655  23.0945349   3.1198344
  33.4485269  30.5247259  22.7861214  33.2185483  31.0969472  22.0540667
  32.6851487  29.9577856  22.8959584 107.7685642  11.8787706  80.5304146
 107.7622032  12.7876687  80.8305740 107.2561169  11.8899190  79.7220135
  61.3164806   6.2163848  39.6433544  62.0098066   5.8291769  40.1777697
  60.5236578   6.1160433  40.1702261   8.7731034  41.4604998  34.6251583
   8.7338382  42.2371387  35.1832962   7.9689372  40.9812117  34.8247433
  79.2819786  53.8015890  57.8818321  79.3951082  53.6916637  56.9377184
  78.3473635  53.6569595  58.0295181  11.7733943  37.8824019   6.2180340
  12.3334229  38.0763674   5.4663849  11.2585390  38.6792803   6.3450801
  59.0129519  70.3207588  56.9466734  59.2219687  69.5902395  56.3645363
  58.4600592  69.9349403  57.6261473  41.3384295  76.7190647  69.7681761
  41.7220306  76.8130207  68.8962507  41.2222052  77.6176596  70.0768089
   0.6585816   5.8632982  27.0976806   0.3511227   5.8404714  28.0038691
   1.1537541   5.0509465  26.9922280  42.3088217  86.2574100  60.8320618
  41.3784361  86.3392735  61.0416031  42.7525759  86.7693424  61.5082550
  64.4118643  83.3877563  43.7182951  64.7710991  83.4377956  44.6041155
  64.6076250  84.2413425  43.3318806  55.9275246  78.4870815  28.2300210
  55.4113245  79.2051458  28.5962939  56.6607141  78.9186382  27.7913570
  77.7163839  98.8403988  59.5898247  77.8494930  98.2033539  60.2917433
  78.3882093  98.6271000  58.9422226  26.4087176  80.9638977  39.9011827
  25.5652261  81.3916016  40.0489235  26.1922812  80.1698685  39.4124150
  62.9326010  82.1484661  77.8742933  62.0451593  81.8209934  78.0207109
  63.4133863  81.3937283  77.5345182  66.7466974  89.4535160  70.5384970
  67.3705292  88.9370346  70.0282907  66.0301638  88.8470650  70.7256508
  64.7963142  64.6155071  83.4095192  64.3036890  65.0001240  82.6845169
  65.2564955  63.8725996  83.0189323  91.1083984  83.5798836  76.0977745
  90.3345966  83.8184929  76.6082048  90.7784176  82.9800606  75.4287815
  41.8870115  79.6025085  69.3356085  41.6596270  79.0429020  68.5930634
  41.5661049  80.4699135  69.0889215  72.5609875  15.6151283  80.6189537
  73.2845879  16.0471034  81.0728550  72.8748846  15.5011868  79.7218895
  74.8353624   6.2233275  84.1503525  74.3001461   5.4300088  84.1708469
  74.3126678   6.8769544  84.6148872  54.7667885  95.4722500  50.3721046
  55.2412033  95.9387493  49.6839619  54.3604946  94.7311401  49.9227571
  96.8593407  13.6007142  44.2525291  97.5910950  13.2252479  43.7628460
  96.0898685  13.1307161  43.9312220  31.1015463 102.2359657  73.8060904
  30.5991936 101.4429951  73.6188269  31.5671849 102.0382023  74.6186829
  66.9855595  89.2940044  60.1491976  66.8507910  88.4048367  60.4770088
  67.8632832  89.2781353  59.7676468  52.7745295  84.3197727  58.8854218
  52.7942944  83.3628750  58.8713646  53.6530495  84.5733547  59.1684914
  75.7004642  83.7624836  64.8033571  75.3961182  83.3913136  63.9752054
  75.8217144  83.0045986  65.3753138  65.4267454  71.1779213  67.8186226
  66.0381031  71.2926817  68.5461569  64.6250486  70.8529997  68.2284260
  16.4757311 102.9304123  23.7136269  15.9696770 102.3515034  24.2837214
  16.3118076 102.5999165  22.8303742  70.8499765  93.0694008  43.6754656
  70.0278950  92.7406979  44.0392923  70.6149197  93.3916187  42.8053188
  48.5545158 100.5215263  44.4590187  49.2236519  99.8976707  44.7406149
  49.0181589 101.1235809  43.8769531  43.3437920  73.4412432  67.9039145
  43.4559059  73.9416218  67.0956564  42.3958206  73.3978605  68.0292177
  65.7728243  97.4326897  59.1678238  66.0337400  98.3063221  59.4592285
  65.3399944  97.0456982  59.9288273  47.2186327  85.1046467  69.0144157
  47.3460150  85.3407478  68.0955791  46.2810326  84.9266243  69.0882015
  75.6243324  82.1500111  44.3488312  75.5615711  82.9254818  44.9064541
  75.9670639  81.4673328  44.9256516  50.8571434  85.6532383  41.8247890
  51.0146379  84.7091198  41.8331718  50.5014038  85.8444309  42.6926184
  99.7409248   6.9261515  73.7762213  99.6355152   6.2005430  73.1609058
  99.9392509   6.5043324  74.6122599  53.5096931  82.5509453  41.7351723
  52.5764179  82.6213646  41.9358301  53.9067078  83.3024788  42.1754074
  79.1012573 103.3796024  48.4771156  78.6089039 104.1032982  48.0897093
  79.6383333 103.7907696  49.1544104  43.5346842  59.6356773  56.7040300
  44.0828562  59.9165249  55.9713173  43.2831764  60.4494953  57.1406937
  47.2599459  98.3892918  50.1995373  47.1248531  98.0573082  51.0870981
  47.6556826  97.6566696  49.7274303  77.0937872  73.1777143  52.0914459
  77.4155664  73.9219427  51.5827036  76.6900969  73.5725498  52.8643417
  41.9209480  81.6261482  55.2625561  42.8615475  81.7897224  55.1936531
  41.5638447  82.4337101  55.6321001  18.2968867  49.0875435   3.7467989
  18.1786609  48.3635426   3.1319174  19.2177618  49.0363121   4.0029162
  51.1672926  90.7291222  51.3331270  52.0708752  90.5798531  51.6114855
  50.6636667  90.0482368  51.7792130  97.4962711   0.9252005  66.3000822
  97.1621037   1.6543019  66.8225527  96.7144012   0.4362265  66.0435534
  86.6753864  69.9711990  74.2169714  87.4149990  69.9910498  74.8242760
  85.9638500  70.4005098  74.6919823  71.7405701  11.2301254  47.8119755
  71.9803905  11.4594841  46.9141388  71.7051363  10.2735829  47.8135014
  74.8515368   4.7790390  37.0485806  74.3380117   4.6012470  37.8365588
  74.8592567   3.9472464  36.5749836  53.3764362  80.2829742  22.9703021
  52.9732752  81.1450577  22.8678012  52.6398611  79.6717119  22.9630494
  52.4891710 106.2999439  60.0016165  52.8491831 105.7892323  59.2764950
  52.3591709 105.6615257  60.7028770  42.1337461  83.3537674  66.9822645
  42.1567059  83.9737701  66.2533665  43.0310631  83.3423138  67.3153162
  65.5036879  72.3827410  58.3572006  66.0559893  72.5447130  57.5923777
  65.5962753  71.4449596  58.5252142  54.4376087  87.2014141  71.3801050
  55.0346661  87.5858879  70.7382870  54.1987991  87.9308128  71.9520998
  95.2794075  13.1245708  52.5818634  94.7389984  12.7878010  51.8671846
  96.1216068  12.6826346  52.4740601  68.6592484  72.2763729  59.7034168
  68.8268757  71.5095806  59.1555452  68.6290884  73.0086708  59.0877390
  79.1014433 106.7960358  79.1765165  78.2401562 107.0115852  78.8188028
  79.2663813 105.9007263  78.8808012  27.1332264  81.0343647  56.1924458
  27.5313640  80.2587318  56.5875578  27.8753424  81.5923977  55.9598684
  54.1295195  73.1477356  75.5758858  53.8469505  72.4877691  74.9427700
  55.0678921  73.2473326  75.4153681  30.3848720  72.3899317  67.8924274
  29.9720263  73.2510614  67.9576015  31.2497663  72.5086355  68.2849789
  84.6584129  82.4481201  63.6508417  83.9353561  81.8642902  63.4215689
  84.3515491  83.3193874  63.3999252  66.6387033  80.7296276  43.2861948
  65.7264948  81.0132694  43.2258034  66.6415977  80.0804043  43.9895630
  36.0268712  72.9507351  57.7777481  35.1142883  72.7046204  57.6265860
  35.9756541  73.7534857  58.2965946  59.9728060  83.3780193  30.3088617
  60.4935026  82.5974464  30.1196027  59.0866184  83.1483650  30.0292850
  50.4129601  86.8082237  48.0891991  50.8107662  87.1283340  48.8988352
  50.1231956  87.5996876  47.6354837  83.6182117  58.0488348  52.0199871
  84.3382549  58.4500360  52.5066042  83.4679890  57.2124958  52.4606752
  98.9962482 105.9991074  27.6295447  98.7366104 106.6715527  26.9997501
  99.6318722 106.4351273  28.1970739  87.9496384  92.0573330  87.0133781
  88.1742191  91.1433697  86.8388081  87.0940018  92.0163441  87.4405098
  80.9197426  42.0724154  60.8283043  80.1588440  42.1113777  61.4077377
  80.5637455  41.7964220  59.9837160  31.6101503  15.0479615  48.4602833
  30.7264972  15.4144299  48.4933186  32.1816087  15.8093202  48.3602810
  22.4056673  47.2577763   1.5182251  21.9520855  47.6489973   0.7716041
  23.1490779  47.8391218   1.6782728  37.1325946 101.3412094  63.2918692
  37.9742336 101.1091232  62.8994274  36.8069816 102.0613384  62.7518606
  69.8565626  96.8420887  30.3483295  69.3601704  96.7105293  31.1561179
  69.7953510  96.0037708  29.8903799  66.6405582  89.7488689  47.4048185
  67.5669193  89.5188618  47.4767733  66.6036558  90.3692532  46.6768122
   8.6926049  77.3392487  92.4547386   8.9145726  76.4970350  92.0576954
   7.7771020  77.2459936  92.7181530  14.7546554  79.2218447  59.5204973
  15.3899014  78.5583544  59.7897100  13.9794278  79.0408087  60.0519848
  82.0845127   0.0055866  51.5143824  82.5646591  -0.5967653  50.9461737
  82.1631241   0.8562161  51.0825491  99.9790955  19.6405888  40.5128050
  99.4926643  20.3783369  40.8806944  99.3063831  18.9965010  40.2917862
  53.7360334  88.0771065  24.0297079  54.4934654  88.4882164  23.6131549
  53.8741827  88.2144833  24.9668694  79.8925877   3.5000861  50.8776808
  79.2499638   4.1701299  51.1107206  80.7392120   3.9026290  51.0711145
  52.4804735 106.7602634  55.6653166  52.2929382 105.8272457  55.7680511
  53.4202480 106.8353176  55.8309031  42.2362232  86.5158081  47.1815729
  41.9273615  85.7202721  47.6151085  41.4364243  86.9840145  46.9421244
  92.0096779   7.7816755  59.0463018  91.7245102   8.0879515  59.9071789
  92.1428204   6.8404955  59.1589403  93.4873867  68.0379343  46.5704060
  92.6288795  68.3994055  46.7907143  93.8031864  68.5898113  45.8549118
  68.2068586  84.9360371  26.0368085  67.5380135  85.3666592  25.5044103
  68.1709099  84.0175629  25.7697010  64.4563103  84.0089417  79.0452576
  63.9259434  83.2309532  78.8729715  63.9914894  84.7186661  78.6020184
  61.4224720  89.5299053  15.8005106  60.6593800  89.6377659  16.3682103
  61.3821411  88.6168766  15.5159295  75.0664616  72.0418739  56.4753771
  74.4033003  71.7884398  57.1174240  74.6149540  72.6529169  55.8931398
  57.4132824  69.6231985  59.2258739  56.6736126  69.1572380  59.6157503
  58.0248165  69.7512197  59.9510479  69.7840738  73.6712360  57.5946140
  70.6521893  73.6026812  57.9919863  69.7987270  74.5079994  57.1300268
  17.3962069  79.5903492  51.0956049  16.6588354  79.3836164  51.6698694
  17.9241848  80.2110672  51.5977812  87.3260689  79.8334312  65.8423519
  86.8068409  79.0498114  65.6618643  86.8660736  80.5364418  65.3836441
  55.7933760  88.1438446  29.0155721  55.0795269  87.5749207  28.7275243
  56.0762119  88.5947323  28.2199979  45.6714630 103.2300186  74.2102957
  44.7954130 102.8764820  74.3645000  45.7061577 104.0247440  74.7426891
  49.4473362  99.4310951  27.6838851  48.8161135  98.7340641  27.5051808
  50.1269436  99.3147850  27.0199299  36.5238714  71.6302299  27.4336100
  36.1896825  71.3223839  26.5911269  37.4751353  71.6334724  27.3272109
  41.0313129  82.9135132  27.5276065  41.8887377  82.8382206  27.1088123
  41.1951351  83.4280777  28.3179307 104.9604797  95.6609821  67.3219156
 104.0338802  95.9005928  67.3369503 104.9688053  94.7558975  67.0104980
  13.5007906  66.0372591  57.2611952  12.8879380  65.7901382  57.9537106
  12.9450166  66.2207937  56.5037918  53.9251089  78.2625580  53.8699484
  53.6057091  77.5955248  54.4776297  53.1650257  78.8207579  53.7058878
  69.0812016  79.8300457  41.9186449  68.3920956  80.1234150  42.5147104
  69.3881702  79.0051603  42.2948980  63.3738661  89.1098118  61.0865831
  63.8253689  88.6145592  60.4031324  62.6367235  89.5221710  60.6362391
  66.9488287 102.4677563  48.8454437  67.1126509 103.2522392  48.3220100
  67.5703859 101.8217945  48.5098410  52.7544546  74.0636301  71.7490053
  52.6356602  74.0940189  72.6983213  51.9343615  74.4065332  71.3939047
 108.4951019  61.2558079  43.0766487 107.6511097  61.1050940  42.6509809
 108.7122345  62.1633339  42.8633976 106.4581680  27.1116853  58.2644796
 107.1085644  27.5967956  58.7723064 106.8995476  26.9113779  57.4390793
  30.2699065  75.7212925  43.9469767  29.3957329  75.9655762  44.2509174
  30.1606131  74.8418856  43.5851431 108.9085865   0.5383336  51.6924906
 109.6520901   0.7193636  51.1174536 108.4242725   1.3633367  51.7247009
  94.8057652  14.3067145  54.9688053  94.0342522  13.7462258  55.0516558
  95.2644634  13.9705467  54.1988611 100.0747108  69.0355587  46.9378567
  99.3855095  68.6326075  47.4659395 100.5894089  68.2972002  46.6120577
  40.7303858  70.0920916  48.1890821  41.4838314  69.6140814  48.5355759
  40.1359606  70.1752424  48.9347219  17.9948640  39.5683551   9.6506518
  18.1408727  38.6433721   9.4523627  17.8550804  39.5912075  10.5973148
  12.1949196  20.7111883   2.5392401  12.3636949  21.5548396   2.9587620
  12.5588417  20.0654578   3.1449020  87.2265911  81.2373257  78.5186148
  87.7252865  81.8842793  78.0196333  87.7878380  81.0256481  79.2645550
  62.5197697  83.8541412  72.2384167  63.0088854  83.9836025  71.4258623
  63.1935644  83.7778759  72.9140043  69.2049360  91.2483406  87.7259731
  68.9763832  90.7693386  88.5225582  70.1301003  91.4680195  87.8357124
  82.5930882  82.1980381  52.5407171  83.0875587  81.6048431  53.1062746
  81.6914082  81.8807316  52.5908804  69.1245699  74.7275591  49.8332453
  68.3176708  74.9622917  49.3749332  69.7873831  74.6836615  49.1440535
  77.4454641 102.5609970  78.2805681  77.1233988 102.1961021  79.1048002
  77.1621227 101.9347095  77.6144457  66.9766712  82.0893383  34.8180008
  67.9024172  81.9247437  34.9972486  66.9232941  82.1428490  33.8637877
  81.8708515  96.7047596  55.7403755  82.2915745  95.9354782  56.1243391
  82.2998619  97.4485493  56.1634016  82.3002720  14.9990380  42.5138474
  81.6913605  14.5654535  43.1117296  81.7712116  15.6647468  42.0743465
  74.1553068   8.0701333  51.7410374  74.4597530   8.9049703  52.0968342
  73.2119703   8.1873727  51.6287756  94.7519493   8.1603843  29.1226220
  95.5385303   8.6013037  29.4437432  94.3182850   8.8137871  28.5737777
  62.8698254  68.6736107  73.4303141  63.0779409  69.2066717  74.1976213
  62.2131920  69.1832209  72.9555941  65.2688408  95.5390835  54.0888214
  64.3184328  95.5600548  54.2006969  65.5758381  94.9312305  54.7614956
  85.2812004  77.2353888  63.8310814  85.8689785  76.6494989  64.3080282
  84.8799610  77.7772522  64.5105076 105.4722500   5.5583829  58.9032364
 104.6916676   5.9124732  59.3293190 105.7678032   4.8598477  59.4871283
  85.4906940 101.9015026  61.9761992  84.6972370 101.8380451  62.5078344
  85.1960182 102.2871971  61.1511946  95.4015160  62.0013142  54.1048384
  95.6233215  61.6715384  54.9756336  95.1571655  62.9153538  54.2499495
  80.7265091  83.0806446  63.9113045  80.7031727  82.5483990  63.1160641
  80.1819515  83.8408184  63.7068033  61.4122343  77.4985456  30.1569819
  62.1025324  77.8787851  29.6137142  61.8383217  76.7721415  30.6119728
  83.0602551  63.1039953  58.5757065  83.7712574  63.1162405  59.2164564
  83.4382725  63.5006809  57.7908659  12.8507340   8.6999422  77.4932480
  13.4452188   8.3587021  78.1613588  13.2521760   9.5224613  77.2130013
  90.4824638   4.5322886  67.1070814  89.6342373   4.5802575  67.5480318
  90.4540539   5.2335894  66.4562321  76.5928888  92.5834179  47.3877096
  76.2146139  92.0368958  46.6989040  77.0459461  91.9658184  47.9617643
   2.0827989   7.2902161  48.6688185   2.7980107   6.7807674  49.0498257
   1.3416210   7.1382004  49.2551470  37.4608445  89.0327740  68.7354994
  37.9932046  89.1559315  67.9495859  36.7423820  89.6577835  68.6384773
  70.5857277  76.4779425  28.8398600  71.5028715  76.2402201  28.7036109
  70.3498507  76.9795895  28.0595112  96.3517857   4.3345129  31.9648099
  96.8613529   4.2664406  32.7722406  96.9500923   4.0393803  31.2784028
  75.7887077  80.8477402  50.0024223  75.2642727  81.0467815  49.2268038
  75.3695393  81.3405418  50.7078886  64.3397379  94.9757099  36.9422698
  63.5983419  94.6939468  36.4063835  63.9392805  95.4024601  37.6997352
  76.0979319  66.1017656  53.4765625  76.0060930  65.9105062  54.4099522
  76.8930864  66.6313791  53.4176970  60.5334663  88.4159374  71.1779881
  60.8429241  89.2994404  71.3776922  59.8906231  88.2270908  71.8616009
 100.5437565  11.0666764  88.5699558 101.0653496  10.6094658  89.2296028
  99.7501659  10.5384517  88.4837914  86.7368031   0.7435387  43.0959511
  86.5003777   0.4492256  42.2163391  87.6578808   0.9942110  43.0251455
  52.1045780  92.8781700  63.9216089  52.2377014  92.2908592  63.1775808
  52.9885244  93.1285286  64.1902781  58.8171911  83.2314968  37.1883011
  58.8421583  82.2750664  37.1590018  58.2352972  83.4780312  36.4693785
  63.5206890  79.2212582  42.5140047  63.8294125  78.6427307  41.8167067
  62.9125786  79.8183298  42.0781851  63.9401770 107.3019218  40.2704382
  64.3896389 106.7269897  40.8898497  64.5429850 107.3747253  39.5304704
 100.7927513  60.9682178  46.1140537 100.9849930  61.1660147  47.0306492
 101.6338921  61.0628176  45.6671000  58.2261705  95.4115486  53.7285948
  58.5797548  95.6710243  54.5794106  58.9314985  94.9107933  53.3187294
  15.5903876   3.6769813  35.2931476  15.2880704   2.7731922  35.3825974
  16.0733020   3.8491142  36.1014771  65.4012489  82.1361828  40.6102657
  65.0295734  82.3410320  41.4682388  66.1107159  82.7690983  40.4992819
  84.3528080  85.8824730  91.2090874  84.5669651  84.9659920  91.3835335
  83.4157944  85.8764648  91.0136032  49.5885324  81.9496250  44.5063353
  50.0483370  82.1776104  45.3143167  49.9201584  81.0809708  44.2789698
  47.3666668  87.7704144  38.2780123  48.2158613  87.6787376  38.7100935
  46.7940903  87.1606255  38.7433624  65.7646847  92.5092220  41.5199709
  66.0502720  92.3205566  40.6260586  66.2862396  93.2675171  41.7830276
  78.9154959   4.2953011  59.8396444  78.8604593   4.8809904  59.0845490
  78.0263758   3.9569810  59.9456549  46.8252754  75.1829338  63.4347677
  46.7096901  74.4867706  64.0814734  47.4780846  75.7650709  63.8235903
 106.9888306   5.4568082  46.6764164 106.8756390   6.0540462  45.9370041
 106.3468170   4.7632760  46.5245771  56.3790846 100.0949574  44.2085791
  55.6421566 100.5107307  44.6561289  56.5767479  99.3230152  44.7389317
  44.3392229  93.5184765  45.6942177  44.0750074  94.2053223  46.3063145
  43.6192703  93.4681034  45.0654316  71.2649727  73.1625175  52.0076132
  71.7829943  72.3734808  52.1666718  71.2906933  73.6374187  52.8382969
  57.9054260  72.0773363  54.4319630  58.4200048  72.7932453  54.8046827
  58.5343647  71.3650274  54.3167210 100.1516247  98.0375671  92.2159481
 100.8436394  97.4765491  92.5661087 100.0206470  98.7050152  92.8894424
 110.6973204   0.1421425  60.7800436 110.5911717   0.1325772  61.7312908
 111.3785157   0.7956764  60.6216192  97.5966644 105.6308460  90.4770279
  97.2667885 105.4023361  91.3460445  97.0991325 105.0742149  89.8779869
  95.4953766   4.6446344  56.0651445  96.2025928   4.0621310  55.7880735
  94.8575783   4.0654561  56.4822817 104.1554642  39.1755056  60.5364656
 104.9140263  39.7393894  60.3852892 104.3296242  38.7612176  61.3816071
  92.6903915  66.2575817  57.5273132  93.1266975  65.4152584  57.6552200
  93.3513355  66.8084192  57.1078396 100.6318569  23.4343219  62.0349646
 100.4017925  22.9467678  61.2440205  99.9923992  24.1456056  62.0723772
  84.7655678   8.8842380  78.5154247  85.2881718   9.3271172  77.8468609
  85.3532791   8.8077295  79.2670679  80.1613617 106.8590355  57.4878025
  79.6819544 107.5990009  57.1151876  79.6710873 106.0879707  57.2026396
  97.3940372  10.5466866  76.6747093  96.5730000  10.2104211  76.3154554
  97.1367550  10.9972811  77.4790764 103.4307575 107.0676231  77.4709988
 104.0342617 106.8917561  78.1928587 102.5767708 107.1674442  77.8916836
  76.8434238   5.7688457  49.1331387  76.6774893   5.7238710  50.0747681
  77.7946997   5.6978834  49.0539122 108.0145836  12.7777708  31.9002652
 107.9695320  12.3866224  31.0277939 108.8777161  12.5281978  32.2303510
  96.5846443  25.1653028  34.4575477  97.1483612  25.2464962  35.2268767
  97.1006012  24.6522427  33.8356304  99.5439625  17.6471364  43.7058306
  99.9698257  17.2088039  42.9691267  98.6419392  17.3274493  43.6858130
  55.7626200  79.5313025  44.7072983  54.9332905  79.9184513  44.9875832
  55.6643772  78.5967541  44.8895025  63.0742598  80.5910492  47.7496910
  63.2034540  80.8433056  48.6639690  62.1483946  80.7662487  47.5814295
  26.7846942  35.1556516   0.5463636  27.4661112  34.9195671   1.1757816
  26.7245555  36.1091685   0.6048760  77.0067549  85.0145149  66.7275476
  76.1878109  85.2385807  67.1695375  76.7326355  84.5547676  65.9340000
 107.1452999   5.6119466  54.3629980 107.7854729   5.3884876  55.0386238
 106.3093567   5.3053677  54.7143507  70.2781820 103.8104248  25.5044508
  70.3585052 102.8579521  25.4537535  69.8932266 104.0633297  24.6653557
  72.2098684  83.0741310  39.1658950  72.9610538  82.5633430  38.8641572
  71.7401695  82.4840355  39.7553039  98.7838173  81.6139221  24.3689537
  98.9816761  81.7846680  23.4481239  97.8758049  81.8974876  24.4753957
  72.5554323  74.5322132  58.2855940  72.7950716  75.4524422  58.3950567
  73.2280111  74.0506411  58.7672186  76.9454527  87.7498722  37.0879531
  76.2859869  88.0807686  36.4781666  77.1899128  86.8942547  36.7352486
   2.9555774  17.0433068  68.9827156   2.9375795  16.2578988  69.5295620
   3.7975785  17.0003450  68.5294819  97.9342651  26.8418002  79.0400696
  97.9924774  25.9956574  79.4837904  97.7544308  26.6211295  78.1261826
  22.6577616  13.5957599  65.1838160  22.3817444  14.4134724  64.7698212
  23.5980439  13.7047696  65.3260088  70.6772423 104.7038078  73.7642002
  70.4142332 105.5707264  74.0732527  70.1036930 104.5315552  73.0174732
  85.1670074  15.3649938  60.4763889  85.2140713  15.3785753  61.4323330
  85.5682755  14.5320261  60.2286434 106.8127441   9.6126598  92.1403217
 107.3185062   8.9086139  92.5462246 106.8763924   9.4422138  91.2005711
  71.5930748  64.9762726  79.4203186  72.4963331  64.8362017  79.1361761
  71.5974712  65.8504486  79.8102236  91.8026733 104.4069481  56.7995405
  91.0309410 104.2899990  56.2454844  91.4829731 104.2597961  57.6896906
  63.2859802  91.9123745  28.2426882  62.7153349  92.6424217  28.4827495
  62.8974104  91.1522484  28.6756372  53.0554962 102.6426029  39.3033266
  52.9377842 103.0653477  40.1540136  53.3110905 103.3537388  38.7157989
  43.7131786 102.5910950  58.9982557  43.3474874 103.4667969  58.8731909
  42.9591608 102.0050812  58.9328861 109.4240475   9.6303409  36.5345168
 109.0824795   9.4768476  37.4154258 110.0972748   8.9598638  36.4184761
 103.2072639  27.8332329  55.4428625 103.3086491  27.4110484  54.5898008
 102.3659992  27.5141835  55.7695293  43.0210733  87.2819042  84.6641159
  43.7286425  87.6247978  84.1182232  42.2722054  87.8444958  84.4668102
  76.6605473  83.2623196  58.9191484  77.3949242  83.8676548  59.0215969
  76.0273266  83.5397530  59.5811844  64.1375351  89.3960285  57.2484255
  63.6843824  88.6991501  57.7230215  63.4429646  90.0037861  56.9945812
  77.8693914  29.0091562  39.3966985  77.9091406  28.9690566  40.3522301
  77.7704096  29.9406791  39.1999769  85.6228733   7.3412853  37.9805160
  85.3453827   6.9951802  37.1323180  85.5805683   8.2919037  37.8767514
  95.4112530  88.6941433  53.6364079  95.9039211  89.4316006  53.2763338
  95.6859112  88.6468792  54.5521355  80.4221725  78.3442211  64.4048405
  79.6113634  78.5960340  63.9627886  80.2344894  78.4637737  65.3358173
   7.5476855  19.7688687  88.1028843   8.4506994  19.8514760  88.4094334
   7.2265053  18.9678633  88.5169601  76.0910749 100.5891895  76.7284298
  76.5110254  99.8094749  76.3652182  75.2337742 100.2834511  77.0247316
 109.9310017  17.8530228  65.4135323 109.3883991  17.0736039  65.2938890
 109.3752098  18.4588432  65.9037447 105.8994961  83.9099789  82.3602676
 105.7225323  84.7033310  81.8547726 105.1679897  83.8492870  82.9746342
  76.7544603  91.7463112  88.1287575  77.5299549  92.0950317  87.6891804
  76.4713383  92.4517727  88.7104797 102.8295231  22.7098703  78.5086727
 103.0384636  21.9393063  79.0366888 103.5872650  23.2851386  78.6141539
 111.4343834  19.9672246  57.5697708 110.6388950  19.9791789  57.0375299
 111.3654900  19.1637564  58.0854464   5.5398691  35.0057077   6.6682118
   5.3941101  35.6223607   7.3856568   4.7505885  34.4643641   6.6535985
  68.3971405  93.2189751  54.2582226  68.0019903  93.1539440  55.1276207
  68.0912495  92.4379444  53.7970734  82.5278378  95.2389717  53.5811663
  82.2571087  94.3600845  53.8466835  82.0555496  95.8242035  54.1733503
  90.1686573  70.8912039  61.5559673  91.0301781  71.1853218  61.8517876
  89.5545673  71.5046263  61.9595051  76.7023802  15.6926882   3.4711275
  77.1457434  15.9949839   2.6784891  76.6161251  16.4779735   4.0116087
  27.1075153  66.7672586   4.2059276  27.3611760  65.9681797   4.6678424
  26.2337708  66.5788221   3.8634440  38.3024073  99.5552921  52.5084543
  38.4925890 100.4868603  52.3977709  38.3288789  99.4162655  53.4551382
  70.8230925  96.0849857  75.2693892  69.9758720  95.7476425  75.5603361
  71.3553619  96.1135292  76.0644388  66.3966799   1.4917700  67.8242111
  67.1498775   0.9649687  68.0914307  66.6311216   2.3867324  68.0697918
  39.8761749  14.6353924   5.1753318  39.1570234  14.2813838   4.6521387
  40.0220156  13.9793718   5.8569455 109.0403748  20.0195622  56.1366177
 108.3067226  19.6714115  56.6433430 108.6441994  20.3253722  55.3206825
  56.3283777  82.1836281  22.5783730  57.2666883  82.0492935  22.4451160
  56.0273504  82.5925255  21.7669439  80.4481030   1.9305597  62.9625273
  80.3041458   1.4816171  63.7955713  80.4760170   2.8592691  63.1926441
  65.5317259  74.5352983  67.5898790  65.4933071  73.5927725  67.7523851
  66.4673233  74.7354889  67.5613832  67.2570848  83.6279678  47.8081799
  67.5223923  83.4268665  46.9107389  66.5183306  83.0429935  47.9763317
  25.2458024  81.8505096  85.7184601  25.0670171  82.3063755  84.8959923
  25.9473085  81.2356186  85.5039120  78.4808588  98.0846786  42.7159452
  77.9903507  98.2090187  41.9034338  78.3812904  97.1538734  42.9157686
 103.3943272  99.3892002  67.9309464 102.5086212  99.2656994  68.2722616
 103.9373398  99.5057964  68.7105465  61.1793947  82.8086376  51.8580294
  60.9639597  83.1710911  50.9986973  60.5447531  82.1037102  51.9865990
  66.5605640 100.9619999  64.4680882  67.0412493 100.1387596  64.5543766
  65.8290434 100.7524872  63.8873863  88.8177299  96.6142464  41.5766668
  88.9578915  95.7487011  41.1927271  88.0392647  96.9501305  41.1323738
  64.7485938 106.9666632  67.6379347  65.2141490 106.4303431  66.9961786
  64.9616351 106.5689262  68.4821224   8.6632454  13.7370384  58.3145046
   8.3889711  13.3764768  59.1577148   7.8578103  14.0798271  57.9272079
   6.7280942   2.9286677  71.8224573   7.6373273   3.2140535  71.7325544
   6.2207270   3.5964519  71.3610744  61.4503574 101.3805580  55.3786945
  61.7854786 101.7482758  56.1964417  61.3900900 102.1298504  54.7861052
  93.9672470  12.5154066  64.8203135  93.8737774  12.0170319  64.0084505
  94.9110413  12.5419724  64.9777365  66.4689398 100.8478165  43.3590841
  66.9165707 100.8739185  44.2047644  67.0640564 100.3621292  42.7879667
  92.1337700  21.7438722  37.4443269  91.5610695  21.3352823  36.7952538
  92.9920673  21.7734480  37.0216131  47.4016857  92.9500580  54.6094179
  46.9082642  93.0271530  53.7928247  48.2018995  93.4517956  54.4540119
  98.4734249  14.0330362  51.8560266  98.0015182  14.8543656  51.9937038
  97.9591942  13.5692167  51.1952114   8.4256381  53.5771227  32.5380135
   9.0679163  54.2548656  32.3273683   8.3479565  53.6088276  33.4915304
  80.9884357  72.4285793  41.7130423  80.2400208  72.9786253  41.9444942
  81.2866783  72.0664883  42.5474119  97.5806999   1.7920578  35.5291843
  97.7707195   1.1570698  34.8385978  97.4207401   1.2585801  36.3076735
  93.2648659  23.2615805  15.8429611  93.2222652  24.1650891  15.5297637
  92.4059296  22.8947330  15.6335115   3.5666668   5.8878571  50.5530882
   4.1138065   5.2585357  51.0230064   3.4347460   6.6025823  51.1759806
  71.7804337  96.8300533  56.8916941  71.3781166  96.6504383  56.0419226
  72.2420263  97.6593781  56.7676592  66.3600206  85.7734108  37.8042650
  65.6343460  85.4156590  38.3157754  65.9381294  86.2242603  37.0728469
  35.4487252  72.1344757  14.0333951  35.1966834  71.7745256  14.8837709
  36.3176394  71.7691851  13.8667095   1.4252727  31.3774729  59.9584341
   2.2144574  30.8398986  59.8918438   1.0045338  31.2922525  59.1028929
 109.8373032 106.4347172  80.5155087 110.7002926 106.7260933  80.8097553
 109.7916508 105.5159378  80.7800770  72.4952364  81.4245892  62.8640747
  71.9868088  80.6573772  62.6011896  71.9353724  82.1694660  62.6450825
  15.2112103  89.0948296  53.4493494  15.7948208  89.4911766  52.8024006
  14.4335365  89.6528912  53.4440708 105.0446510  72.6558304  47.4926949
 104.8826981  72.3735666  48.3928776 104.9283123  71.8633604  46.9685888
  90.4352856   1.6380705  59.6886778  91.1897182   1.8580136  60.2351952
  90.1756191   0.7638545  59.9794579  54.6167231  27.1771407  69.0915012
  54.0508842  26.5653801  69.5624685  54.0784025  27.9599714  68.9748096
  88.9534855   7.8259921  51.8565655  88.1696415   7.6031870  52.3587370
  89.4828320   7.0286441  51.8725252  68.5697937  86.3183403  42.3218107
  68.2080078  86.8228436  43.0503798  68.5245848  85.4082394  42.6149082
  79.5512342  91.4905357  31.3033175  78.9593840  90.9588528  30.7710981
  78.9875126  91.8804073  31.9714880  74.1516161  93.1868935  77.3445606
  74.7386074  93.7329960  77.8674793  74.6089458  93.0733109  76.5113831
  88.9037800 100.0085068  85.0484371  89.0191555 100.1356030  84.1067505
  88.5423756  99.1257763  85.1284695   8.8468087   7.2877765  56.1579323
   9.7038996   7.7134979  56.1382341   9.0416920   6.3642758  56.3173008
  79.0850449  99.6912003  69.4678116  79.7618866  99.9135017  70.1071119
  78.3469152  99.3876266  69.9962378  50.0303221  83.8135338  56.8427563
  50.0048876  83.0454731  56.2720823  50.8041191  84.2989540  56.5566874
  14.6874857   1.2966779  59.7893667  14.9886739   1.1757182  58.8888741
  14.4562054   0.4161054  60.0848913  55.3356695  99.4011879  35.0233531
  56.2316608  99.2932701  34.7043180  55.2569103 100.3379059  35.2039075
  47.5082064  99.1593838  86.5926647  47.9087687  98.3714294  86.2253666
  46.9782257  98.8404083  87.3231506  70.5502939  95.8662891  91.3029671
  71.4560652  95.6060314  91.1354065  70.2788067  96.3171196  90.5034161
  81.4350224 101.3915157  51.8656778  80.8579063 101.6591263  52.5809097
  82.2850895 101.7705345  52.0892429  58.6405230  67.2823429  68.4518576
  59.4970989  67.6120186  68.1801510  58.0187035  67.7292109  67.8775072
  96.6718388  97.5551224  59.4555569  97.6254272  97.4749374  59.4771385
  96.4656448  97.7142715  58.5344744  23.4960985   5.7009643  67.9171085
  24.1497087   5.0191647  67.7616215  23.6722279   6.0028523  68.8082170
  98.0310535  36.3780236  26.4095998  97.7757359  36.1074233  25.5276585
  97.2103310  36.3951230  26.9018960   1.5806681  26.7158294  50.0675344
   1.9826861  25.8967543  49.7781754   0.6564873  26.6239810  49.8358297
   4.6347228  37.1927857  50.7490349   5.2939546  36.5871978  50.4100513
   3.8482514  37.0011830  50.2381706  91.6078186  97.8773880  33.4659076
  92.0512009  98.1749725  34.2603135  92.0092869  98.3872032  32.7622533
   9.6041906   4.9888262  91.5601826   9.6400732   5.6181699  92.2805023
  10.5038750   4.6741384  91.4720249  43.3168650  27.7448559  19.6609890
  42.4353313  27.3764396  19.7193456  43.7300110  27.2648859  18.9432359
  35.1891351  83.4137249  58.8038588  34.5870161  83.4035683  58.0598259
  35.1892877  84.3241405  59.0994453   7.8131473  24.2869377  45.7828140
   8.5211968  24.7941113  45.3857374   7.7977544  23.4682608  45.2870703
  21.0720468  25.2639389  84.8178768  20.6178784  24.5581007  84.3577099
  21.4079666  25.8271694  84.1206264 101.7409515  82.6709461  46.8614817
 101.8495655  82.3587322  45.9631729 100.7948208  82.6596832  47.0062113
  58.8558960  81.5799236  80.5494595  59.0653706  81.6271782  81.4822674
  58.2033253  80.8825684  80.4855633  73.7083244  88.7454510  46.0810709
  73.3523226  88.2375908  46.8101597  73.2557774  89.5873642  46.1321068
  77.7047920  94.2496777  21.7246890  78.2141399  94.3023682  22.5334072
  77.0160818  93.6131763  21.9164348  20.5342126  14.0427399  80.5241108
  21.3298941  14.0670216  81.0556507  19.9415481  14.6608925  80.9517384
  65.5698109  89.6888733  80.8064461  66.4182901  90.0152969  80.5068302
  65.7547998  89.2830753  81.6534042  35.0806022  54.5781231  19.1870046
  34.3655229  54.1038656  19.6112382  35.3495502  55.2326298  19.8316121
  97.1559048  66.7049360  91.9520760  96.8804359  67.6034403  91.7703152
  96.3383198  66.2278175  92.0939732  23.7053680  34.9460578   0.4913442
  24.1347027  35.7550073   0.2129497  24.4145203  34.4066930   0.8412312
 102.9711533  16.6706848  76.3318253 102.2869968  17.1557856  76.7931652
 102.7014351  15.7546651  76.3980865  83.9022446 104.9392891  27.2385812
  83.9544487 104.1386795  27.7606344  84.7334480 105.3854752  27.4005747
 101.8335724   6.9768536  57.9612875 100.9860420   7.2104573  58.3398962
 102.4665451   7.1719724  58.6523104  53.6877632  98.8156223  44.2322254
  54.5828962  98.7940216  43.8938379  53.7713861  98.5496902  45.1479292
  69.6851969  61.1414146  92.2918797  70.5784655  61.2550545  91.9672394
  69.7878981  60.6572342  93.1111813  20.0861311  84.4886684  42.4913120
  20.7630396  84.6457195  43.1496143  19.2615235  84.5947742  42.9656506
 106.8835545  81.5193462  50.4916668 107.0806503  82.0353985  49.7099590
 107.1802330  82.0650196  51.2199879 108.5493183  42.8058910  63.0982780
 108.9303017  43.1732988  62.3007250 109.2075253  42.9669285  63.7743378
  67.0093918  13.8063931  44.3276787  67.3065090  13.0463612  44.8279810
  67.3079729  13.6366332  43.4342241  20.1478410  85.2481270  56.4331341
  20.4527926  86.1550426  56.4603472  19.2182684  85.3144646  56.2146664
  88.3465481  76.7368460  37.5047731  88.7351799  76.4340591  38.3254600
  88.9667511  76.4608860  36.8299198   9.4873869   0.8121418  78.4821606
  10.3231728   0.7234752  78.0240822   8.8304073   0.5627777  77.8322172
  67.1830177 101.4937782  19.3370378  67.7670479 101.9800949  18.7551188
  66.3606596 101.4289474  18.8514876 107.4975967   0.3177806  54.0510273
 107.0963287   1.0909756  53.6543036 108.0053902  -0.0784968  53.3429766
  64.7875881  74.5309544  52.9611826  64.5139265  74.2245770  52.0966148
  65.3525448  75.2824020  52.7812386 108.9772320  86.3418007  55.9129572
 108.9381886  86.3340473  56.8693304 109.8970032  86.5148449  55.7121944
  85.1340961  86.6449070  63.2838488  85.8476639  86.3155651  63.8302803
  84.3641949  86.1565113  63.5753298  23.0896020   1.4043732  54.6384668
  23.4135246   2.1849065  55.0879908  22.8596544   0.7997456  55.3440046
   7.3445946   7.7126312  44.9623489   7.6389557   7.2832274  45.7655907
   6.4942276   7.3147303  44.7758484  77.5694227 104.7092056  45.4025412
  78.0369854 105.3747368  44.8978853  77.7998590 104.8933315  46.3131618
  61.5204239  84.4663334  32.7876878  61.5444899  83.5570049  33.0856299
  60.9986258  84.4418430  31.9855928  20.6302857  26.8381763   2.4957317
  20.1914740  26.3382268   3.1840104  21.2670970  27.3797321   2.9620123
  74.4383049  91.4560223  40.1178265  74.4380903  90.9015656  40.8980894
  75.2140474  91.1812687  39.6289802  97.2744656  42.2698832  51.8317366
  96.8677044  41.8710470  51.0625124  97.9976845  42.7880812  51.4786673
  70.4573059 101.4187622  45.6235170  71.2571478 100.8942032  45.6598330
  70.7439327 102.3074436  45.8340693  92.5841904   4.3656531  25.7735324
  92.2107029   4.2085367  26.6407418  93.1590939   5.1214850  25.8937001
  85.9951782   3.2427204  12.0402420  86.4233208   3.2150385  11.1845791
  86.7152500   3.2041806  12.6697195 101.6077423   5.3800195  62.7478600
 101.5601349   4.5282045  62.3138380 100.6971455   5.6684959  62.8097963
  68.3676338  98.1686020  78.1098461  68.0235529  97.4532700  78.6447668
  69.2460251  97.8807163  77.8612947  45.7350302  43.9099407  12.9407537
  46.3243866  43.2118177  13.2262695  45.1760435  43.4971952  12.2824156
  93.4256840 105.6590271  45.1993704  92.5714874 105.5863285  45.6251574
  93.4331322 106.5405273  44.8263836   5.5581576   0.8137380  60.9099150
   5.3882432   0.6240115  61.8326092   4.7026038   1.0520692  60.5529022
  49.0516901  92.6505280  51.7667913  49.7276974  91.9816589  51.8757200
  48.2340097  92.1567726  51.7048168  89.7216988   8.6686051  71.5399027
  90.0799561   8.0800354  72.2043276  88.8389587   8.3364278  71.3765764
  81.0871601  71.6313267  44.7369099  81.7919636  72.1655846  45.1030350
  81.4888954  70.7757473  44.5858479  36.6029954   9.5311904  76.6096830
  37.4011374  10.0503993  76.5115786  36.1002588   9.7123957  75.8155489
  72.3811483  73.2330322  68.6354589  72.4456120  73.1253767  69.5843983
  73.2896614  73.2640076  68.3356619  78.3404350  84.2049694  41.7203188
  78.1500340  84.9270725  42.3191071  78.3017015  84.5996666  40.8491468
  49.9997663  39.7954631   4.5818132  50.1004744  39.1357470   5.2680105
  49.3654966  39.4144893   3.9745280  72.4667788  63.9357996  56.9064856
  71.8157005  63.2820940  57.1614218  72.4464607  63.9335346  55.9495020
  94.7486305  82.5003815  87.5678730  93.9398670  82.9938507  87.7043533
  95.3439426  83.1257629  87.1546841  74.3965912  96.3491726  50.7636786
  74.6188116  96.4054775  49.8343325  73.7391567  97.0324707  50.8945608
  72.8975821  92.3307610  61.0019398  72.9192734  91.5118027  60.5068922
  73.0449486  93.0115032  60.3453541  21.9188356  79.2957640  44.0276194
  22.3643422  79.8650932  43.4002352  21.6101670  78.5568190  43.5032940
  32.0844650  89.0233326  51.2925291  31.2083292  89.1680908  50.9352255
  32.5484347  89.8444748  51.1291599  22.6592875  23.3513069  62.4763823
  22.1307755  24.0922022  62.7729940  22.6267576  22.7280974  63.2021809
  11.6826212  17.1241879  74.6292353  12.5312138  16.6851890  74.5709085
  11.5481448  17.5019622  73.7600803  48.8161612  89.3836689  68.4226036
  48.1188869  88.7494564  68.2558107  49.4587564  88.9017391  68.9432287
  91.1701870  92.5989628  67.6682281  91.6722298  92.8273773  66.8859148
  90.5895042  93.3471203  67.8070831  56.3601494  83.6566639  38.7167144
  56.8673229  84.1423893  39.3671608  56.8595743  83.7495995  37.9054356
  71.6003895  83.9950371  53.8298082  71.8957996  84.1967678  52.9419661
  70.6712723  83.7868881  53.7315941 111.1036587  93.8684464  69.4107533
 110.4075241  94.5052910  69.5721340 110.8413315  93.0951405  69.9101782
  81.1963463  98.7845707  43.4281969  81.3209724  99.1132450  44.3185234
  80.2807522  98.5067368  43.4014225  61.8714094  89.8722935  52.1751261
  62.7495718  89.5506573  51.9711256  61.9973326  90.7987022  52.3804188
  43.9542627  98.8055038  22.0006108  43.4000826  98.8588810  22.7792382
  44.4887686  99.5989418  22.0322084  70.1310682  83.8829136  32.2543645
  69.2718887  83.6672592  31.8916798  70.7026958  83.9542580  31.4899158
  75.9757090  10.4831576  60.3988028  76.7571545  11.0324097  60.4612350
  75.3471518  11.0154557  59.9111462   9.8618752   4.7081271  30.3668714
   9.0052485   5.0395811  30.0974989  10.4552019   4.9811989  29.6671367
  52.0686340  94.1904163  19.6110415  52.7568865  94.7420597  19.2392421
  51.4201355  94.1123295  18.9113390  54.9298191  94.1401100  37.6179242
  55.3654242  93.7769318  38.3890176  55.5480862  94.7855663  37.2753382
  67.7797890  98.2280540  75.2339363  68.2096815  98.8348389  75.8366251
  67.9024744  97.3667812  75.6331635  81.5911961  89.6414661  53.6128139
  81.6758919  90.4063416  53.0435848  82.0553875  88.9448547  53.1486034
  43.8353395  96.7585373  68.0058956  43.6156178  96.9672489  68.9138556
  44.2570782  97.5508499  67.6733255  55.5772924  98.1395817  68.9367342
  54.7362614  98.2634735  68.4967899  55.3620672  98.1400681  69.8694229
  46.5973711  96.7807388  73.1211710  46.5772438  97.5195980  73.7293720
  47.4590635  96.8341827  72.7078104  23.1890965  17.6734209  50.3184605
  22.8656244  18.4704280  50.7384300  24.0927911  17.8787816  50.0788879
  60.6969690  74.0564013  47.2115850  61.1151838  74.8746490  46.9436407
  59.8079348  74.3113804  47.4582386  91.3824558  77.4164152  38.3809614
  91.6568851  76.8604946  37.6516652  92.1694660  77.5141478  38.9169645
  21.4266396  25.3227973  64.2043972  21.7603064  24.5432544  64.6484804
  20.4827929  25.1766920  64.1408396  56.9251823  96.1998940  32.4929380
  57.7977896  96.5900230  32.4420738  56.3291121  96.9484901  32.5161314
  57.4491405  95.9342003  61.1051989  57.7724934  96.7063522  60.6410217
  56.5230894  95.8828068  60.8685207  86.4533329  84.1860294  68.7650537
  86.3579845  83.6373901  67.9865026  86.5351105  85.0760269  68.4223366
  16.2028372  25.2570248  30.3556061  15.7859457  26.1131072  30.2578473
  15.6233346  24.6538687  29.8901916  56.4421368 100.7506180  71.6528416
  57.3016739 100.3398609  71.5594959  55.8193874 100.0477314  71.4674282
 105.1169777 101.9448853  52.3322725 105.0837803 101.6118622  51.4354897
 104.8769283 101.1942577  52.8755569  62.6419830  96.6546631  53.9867401
  62.2397518  96.8695641  53.1451607  61.9796371  96.1358929  54.4432545
  69.0859318   6.9197100  45.1971817  68.7927485   6.0095704  45.1533604
  69.6716309   7.0190698  44.4466400  69.6763563 102.4561596  39.7374010
  70.2009058 102.6161003  38.9528656  70.3003788 102.5218678  40.4602480
  73.7433577  14.2152429  46.2655067  73.7601042  14.3980825  47.2049332
  73.8829422  13.2703483  46.2028790  71.4537287 101.3844204  49.8414612
  72.3658466 101.6710854  49.7956944  71.4984655 100.5005932  50.2062702
  64.8314667 102.5470638  29.0882373  64.3507385 102.8563786  29.8559999
  64.9057961 101.6014957  29.2171168  12.2779262  16.6458428  57.0280027
  12.9818761  16.2158525  56.5424156  11.6311347  15.9554589  57.1738243
  61.4165258  88.2257748  67.5034237  61.5127182  88.3268738  68.4503984
  62.1195841  87.6260281  67.2539377  88.5620022  75.9555531  49.0923595
  88.5091400  76.9059992  48.9919186  88.9763355  75.8275652  49.9456930
  81.1063671 104.0582848  82.0124531  80.1657486 104.1400623  81.8550205
  81.3861656 103.3520317  81.4300823  32.9812574  55.8810806  67.8155088
  32.4214101  56.3963223  67.2347116  32.6205349  56.0295010  68.6896276
  14.5374012  25.1869535  18.7678456  14.6921945  25.7022429  17.9761720
  15.1956606  25.4985857  19.3889809  10.1196623  11.7839360  44.8893929
  10.3910458  11.4566481  44.0318012   9.2383963  11.4311588  45.0124788
  92.5109100  59.7474623  67.1177292  91.5972233  59.7125626  66.8345356
  92.9027271  58.9501429  66.7613697  31.3519621  65.3648138  18.5084832
  31.2138534  64.5611334  18.0072331  30.4782271  65.7459164  18.5955513
  96.8022251  20.1758552  77.7435541  96.1994267  20.6475139  78.3183527
  96.2332630  19.6758568  77.1583033 108.4708405 104.3987656  57.4920654
 109.2010975 104.5552444  56.8933439 107.8918743 105.1503944  57.3652554
   0.2610254  37.6975608  43.0885887   0.4435301  37.8288054  42.1581554
   0.3309584  38.5718155  43.4720230   4.3642601  44.3237686  48.6691761
   3.6185840  43.7533665  48.4825134   4.3551648  44.4261503  49.6208429
  63.7772369  18.5340083  69.4996738  63.5910845  19.4727349  69.5189428
  62.9147625  18.1189442  69.4903421 101.8704605   1.5157476  56.1549616
 102.7821159   1.3332023  55.9273911 101.9219303   2.0051984  56.9759512
  12.5378454  19.7660100  51.6580391  12.8014314  18.9644539  52.1099949
  12.0437181  20.2589035  52.3131180  90.4732132  99.3944359  72.7766657
  90.7125759  99.5850945  73.6836338  90.3076744 100.2529716  72.3871040
  95.0924778 101.3872147  41.9104815  95.3099823 100.7665443  42.6059580
  94.8864841 102.2005939  42.3711538  54.8992014 106.5066147  21.6211295
  55.4414940 106.1666775  20.9093761  55.2656937 107.3704910  21.8098807
  71.7810631  12.6588416  60.7426834  70.9509993  12.8157032  60.2925491
  72.3635149  12.3235679  60.0610876  89.3810654  65.0318527  38.4846306
  88.5278511  65.3426790  38.7873363  89.7741699  65.7916117  38.0551314
 111.1473370  22.0245290  59.6749401 111.4992523  21.4645696  58.9829636
 110.3135204  21.6180730  59.9111128  98.7973595  25.2209783  73.9955473
  98.4370804  24.6514940  74.6753359  98.7595177  26.0993385  74.3740749
  18.7554955  26.5895224  45.8282900  18.5324025  27.5094247  45.6860161
  18.4608829  26.4068460  46.7205143  95.3990650  86.6544819  61.5536976
  95.8427048  86.2030602  60.8356142  96.0746384  87.2118092  61.9399786
   5.8072031  15.1499140  47.4729252   6.1190146  14.5632339  48.1619930
   5.9038639  16.0272002  47.8434086  12.1454334  15.3490627  90.2082539
  12.9382658  15.0095880  90.6234741  11.4281702  14.9761975  90.7208347
  30.0838017  22.0457840  53.7718582  29.2371225  21.7911696  54.1386461
  30.6464124  22.1752286  54.5353651   9.1176105  27.6571393  42.4667645
   9.3346131  26.9772553  43.1046534   8.4381598  27.2637439  41.9192076
  63.3809948  91.3062286  69.6601009  63.2070923  90.6559563  70.3406382
  64.0740442  91.8560314  70.0256634  90.4086876  18.4084201  78.5720253
  89.5717525  18.7350869  78.9022875  90.5842113  17.6267338  79.0958452
  52.1301460  31.7752981  37.1936154  51.3236332  31.8969917  36.6926575
  52.1760750  30.8317661  37.3481154  14.0956426   0.8741214  75.9598160
  13.1867778   1.1744495  75.9607983  14.3587244   0.9099119  75.0401783
 113.2276344   7.2731489  65.8439922 112.8819275   8.0494070  66.2846041
 114.0319633   7.0659643  66.3197708  75.2569818  84.5014954  60.8478260
  75.3108835  83.7600231  61.4507675  74.9972105  85.2398491  61.3988113
  47.1818209  88.8458729  86.9537544  47.1745968  89.8024940  86.9213295
  47.4802065  88.5789967  86.0842896 110.1917553  18.7318099  61.3877916
 109.3619919  19.1784847  61.5557384 110.2340698  18.0464244  62.0546436
 111.9736099   7.8672057  17.5870025 112.6265430   7.1675187  17.6055872
 111.7210674   7.9347372  16.6661930  12.2984076  19.3842340  13.7127614
  12.2108948  20.1827145  13.1921804  11.5254807  19.3805170  14.2773867
 111.2034512   8.0533445  53.4144354 110.4696560   8.4972745  52.9893446
 111.7851257   8.7619525  53.6896658   2.0608346  15.9377778  90.8148670
   1.8807295  15.6647480  89.9152851   1.2519783  15.7466257  91.2896729
   4.8193493  18.0018318  13.1344104   4.9177173  17.7621305  12.2129452
   4.1386768  17.4146712  13.4632862  86.2488461  98.8850117  64.3607044
  85.5756950  98.5960865  64.9768353  85.8888149  99.6803570  63.9682245
  67.0000601  89.5663834  27.6648688  66.2793350  89.2988300  28.2351375
  66.7208052  90.4082012  27.3048735  96.8263149  80.6577301  77.4741936
  97.5210285  80.5712700  76.8214130  96.0523319  80.9062386  76.9687891
  18.1619155  26.6444182  51.3815022  17.2884464  26.6180634  51.7721272
  18.6313546  27.3064899  51.8889666  57.4340630  26.2098622  28.1359148
  58.0899477  25.5141997  28.1817889  57.7325296  26.7737651  27.4223566
  85.0222111  70.4062128  64.3085098  84.3089771  69.9364376  64.7407627
  84.5895672  70.9323215  63.6360073 104.6815777 100.1605511  61.6024923
 105.0913429 100.5155849  62.3913383 105.3828812  99.6781158  61.1647034
  99.4834614  93.4150887  11.2264371  99.5813465  93.0964375  12.1237183
 100.1644516  94.0812778  11.1332250  68.7665939  99.5092010  36.9857454
  69.1632795  99.8493385  36.1837626  68.0340576  98.9731789  36.6819406
  12.2981083  94.3655682  67.8839588  12.5125051  93.8094330  67.1349764
  13.1263328  94.7863102  68.1147194  60.9741974 106.3957405  48.5326147
  61.4486933 105.6994438  48.0784559  60.2874660 106.6571331  47.9191780
 100.9344482  16.9777989  45.9942818 100.3609371  17.1547556  45.2486229
 101.1135674  17.8403425  46.3686657  63.4356642  91.3496304  37.4350071
  62.8349066  90.8929539  36.8461394  63.2396460  92.2774506  37.3047662
  29.3615746   9.4423324  82.3219681  29.4138813   9.5288360  83.2738113
  29.5422053  10.3222239  81.9912148  52.2997570 101.4759254  33.2849360
  51.6244459 101.6328716  33.9449000  52.4570084 100.5324841  33.3228278
  58.6470699  80.0138569  44.6324301  57.7521181  79.6888208  44.7306538
  58.6255217  80.5362129  43.8306093 102.6117706  32.6371336  72.4286222
 101.9744778  32.7301931  71.7205048 102.2312355  31.9771290  73.0081224
  94.6562290  81.9425488  65.6624985  95.2786350  81.2176704  65.7207632
  95.1922989  82.7003098  65.4286861 103.9962578   8.5200399  19.6433938
 104.3170071   7.7177936  19.2313838 103.1589794   8.2702911  20.0343132
  68.4866381 103.2332611  69.0747786  68.8571024 102.8385925  68.2853365
  67.7217579 103.7176704  68.7640715 107.0977592  12.7712154  41.7411232
 107.0196056  13.3650899  42.4877405 107.5775433  13.2749248  41.0836172
  61.1758518 105.7211304  70.5518007  60.5119896 106.2383747  71.0078478
  60.8281755 105.6120682  69.6666718  26.4750171  24.5340919  44.0121460
  25.6568933  24.8438025  44.4007111  27.1558475  25.0490808  44.4451427
  75.6000757  82.2948647  54.2565012  75.6508493  82.5729084  55.1710176
  75.9489155  81.4034939  54.2574549  92.5305557 103.9612675  36.0928679
  91.8900490 103.2595825  35.9761095  93.2865524 103.5313797  36.4927387
  66.3638401 105.0393105  87.6772785  66.4983749 105.9842014  87.7501488
  65.4155636 104.9266338  87.7429390  50.1634550 106.0541534  58.3557701
  49.5535326 105.9379578  59.0842819  51.0227203 106.1243534  58.7716675
 112.2274113  47.8272057  53.2527399 112.9574680  47.2354031  53.4344482
 111.7556381  47.4110889  52.5312757  84.3755150  95.0482368  47.2198248
  84.1445827  94.4092369  46.5455961  84.4054794  94.5405579  48.0307484
  12.0827532  33.6003995  65.9124947  12.7051401  33.6006427  66.6397285
  12.1112216  32.7058125  65.5731773 105.0958729  32.4709034  71.4513874
 104.1960239  32.5975657  71.7521763 105.1300907  32.9154515  70.6043673
  54.5095396  18.4228730  21.0796189  55.4210806  18.3209181  21.3533521
  54.2199945  17.5337315  20.8751154 110.2134991  11.0881054  47.4478912
 110.8977222  11.7156780  47.2150230 110.1168060  10.5394042  46.6695547
  21.9272923  15.5530846  48.6116505  22.3930073  16.1417437  49.2056370
  21.0436058  15.9170079  48.5578775  72.1025038  89.2181110  48.9338970
  72.7515745  89.9160671  48.8455629  71.5098000  89.5275307  49.6188784
  84.0608692  71.6783381  84.0884209  84.3309212  71.6863632  85.0067043
  83.4020615  70.9857225  84.0385532  60.1894712 104.9823952  65.1700926
  60.9695673 104.8929119  64.6226645  60.5235577 105.2798462  66.0163450
  75.4951096 102.0738602  36.8851876  75.8694983 102.1605682  36.0085201
  75.1064253 102.9298306  37.0653749 113.0832481   5.3899848  34.8946524
 113.6683655   5.4040366  34.1372371 112.3314953   5.9183127  34.6263957
  83.1724930  82.4762917  11.3353884  83.9359093  82.1574306  10.8539748
  83.2991219  83.4237862  11.3848543 105.9679031  37.2892094  36.2611079
 105.2392673  36.7155814  36.0238957 106.7408180  36.8577003  35.8969259
 101.8335629  14.2723906  41.4554739 102.1901131  13.4006560  41.2846470
 102.2191811  14.5289528  42.2931528  42.4690723  38.5403800  68.4988499
  42.1837378  39.3015504  67.9934406  43.1741905  38.1571221  67.9771709
  38.5112929  28.6758614   2.3447867  38.9655352  29.2147589   1.6971092
  38.3896804  27.8313923   1.9108324  94.2130566  11.5601754  50.2669668
  94.1531372  10.7468605  50.7681274  94.3381023  11.2750900  49.3618059
   0.7520023  27.7171278  71.3399839   0.8707205  27.2223115  72.1507263
   1.4058658  28.4146023  71.3871479  56.3671780  53.4474087   5.8005142
  55.9013700  54.2210674   6.1178625  56.4548874  53.5904455   4.8581344
  73.9148235 104.2856216  60.0696945  73.7229347 105.1038837  60.5277920
  74.8064661 104.0641594  60.3383112  25.3225994  11.3589418  41.3930368
  24.5942307  10.9069026  40.9671640  25.1432109  11.2730443  42.3293447
   8.0515307  22.8050327  55.3993940   8.0834651  21.8530512  55.4939556
   7.2451395  23.0631542  55.8458662  78.8718700  23.1905293  42.5736523
  79.0847969  23.2197595  43.5064125  77.9270458  23.0392241  42.5482845
  18.3901358  14.7908735  59.2871714  18.1053090  14.9858201  60.1799774
  17.5802624  14.7654080  58.7775755  28.4707689  32.3005772  72.0372248
  28.7580776  33.0832696  72.5074148  28.7280440  32.4588633  71.1289358
  11.8353820  26.8047905  73.6236429  11.1405230  26.7487001  74.2795849
  12.5040138  26.1921906  73.9300537 109.4550991   4.8231947  52.6280165
 109.1491032   5.5398840  52.0721769 108.9461708   4.9110594  53.4339333
  26.2839055  15.6550026   4.0378118  25.6673956  15.2365065   4.6386519
  26.9307971  16.0695171   4.6087235  27.4011374  20.5554366  48.6159992
  27.9392171  20.7946420  47.8613567  27.8480959  20.9515166  49.3640471
  97.6824856 104.4035244  67.1178341  97.8069687 105.1998043  66.6014194
  98.4619141 104.3525982  67.6711273  53.6183023  33.4841824  72.1820831
  53.2901525  34.2242312  72.6928473  52.9588223  33.3520246  71.5010166
  80.0643635  74.8574209  36.0394144  80.2828693  75.4743052  36.7379427
  79.9888229  74.0118408  36.4815879  90.9665871  79.7302818  47.4467134
  90.5793190  80.4404163  47.9585505  91.0877800  79.0196562  48.0764389
  27.3706985  59.2137098   5.6558657  26.9315219  59.5713234   4.8841998
  27.0271206  58.3239126   5.7361466  98.8143826  19.2038023  56.1909437
  98.9349270  18.9649618  57.1099949  99.5892620  19.7224724  55.9746456
  11.8434811  36.8182349  43.8825417  11.6984677  36.6187310  42.9576635
  12.2692943  36.0356355  44.2324734  31.3123655   5.8198678  39.8410368
  31.9749904   5.5660319  40.4834747  30.5968451   6.1805117  40.3646755
  65.5963373 105.9486294  48.9608860  65.4976177 105.6281853  49.8574400
  66.5049744 105.7503700  48.7343645   0.5610839   3.8008586  57.5850582
  -0.3131705   3.9957914  57.2475481   0.5575649   2.8542015  57.7266932
  91.0377312 103.0793381  59.7325897  90.5536175 102.7963543  60.5083370
  91.9107246 102.7030945  59.8446131  23.3214116  30.8120990  41.7212915
  23.1523108  29.8719621  41.6597843  22.4626112  31.1993361  41.8908310
  13.2037592  12.5988388  67.1007252  12.4492586  13.1840444  67.0336914
  13.1586099  12.0585120  66.3119030  69.2984295  74.9705982  35.8084106
  68.7696791  75.4657078  35.1826906  70.1278543  75.4465294  35.8505011
  14.7517848  11.6552997  69.0222311  14.2256594  10.9484076  69.3960333
  14.1867065  12.0485222  68.3571768  91.0202789  83.5766029  58.0762482
  91.1406898  84.0441132  58.9027882  90.2540684  83.0222511  58.2240582
  30.4687190  48.3235359   1.5237123  30.1811647  48.8225365   2.2882658
  31.3948178  48.1459045   1.6880973  15.0456405  22.1055865  64.0114737
  14.9715185  22.4846673  63.1356668  15.1876497  22.8574157  64.5866442
 106.5769482  13.1302941  57.1828556 106.1816502  12.5985372  56.4920521
 107.4990273  13.1979287  56.9350290  43.7129116  87.8612328  65.2336311
  44.6140528  88.1839752  65.2367640  43.5333729  87.6610947  64.3149710
  48.1620598  88.2531834  11.4208221  48.9714146  88.7642097  11.4261985
  47.9643917  88.1273746  10.4927421  92.5676155  26.3506889  59.1069126
  93.4209824  26.7279220  58.8931417  92.3260117  25.8484960  58.3286715
 101.4351463  98.6507320  48.9082718 100.5835724  98.4129333  48.5415077
 101.5972805  97.9922676  49.5838261  66.7437172 101.6283131  55.4487276
  65.9204197 101.9692230  55.0991678  67.1523476 101.1821079  54.7070026
  72.4297714  83.7164021  67.1394157  72.9436207  82.9093170  67.1677256
  71.8066168  83.5787010  66.4260101   2.7223560  16.4743948  29.2653155
   2.4419078  17.2706842  29.7164321   1.9194382  16.1202919  28.8829994
  73.3244324  87.1661186  53.2845545  72.6032639  87.4334335  53.8543749
  73.4521484  86.2377071  53.4793854  76.4204979 101.2843323  69.7596264
  76.2374783 100.3974628  70.0698042  75.6020880 101.7606449  69.8994780
 101.8384552 105.8465385  60.9970903 101.1167717 106.2798023  61.4528227
 101.8567848 106.2571907  60.1326466  18.1204975   2.8058347  40.1651287
  18.7834120   2.5448290  39.5258689  17.6022470   2.0141390  40.3095770
  18.8489032   4.4397211  49.4241858  18.7945116   4.4086662  50.3793335
  17.9990733   4.1162175  49.1252470  15.0264609   7.4041951  48.9717340
  15.1587844   8.1859434  48.4354544  14.1164935   7.1545845  48.8108397
  98.2917309 105.4444790  56.1273575  97.4897671 105.2873611  55.6289721
  98.1877613 106.3300419  56.4754963  42.6569462  13.2598495  48.5923195
  41.8258238  13.7346137  48.5842228  42.4089718  12.3410940  48.4892273
  14.7340238  15.6074917  55.0799417  14.9918866  15.3163064  54.2053270
  15.3290439  16.3310277  55.2766132  33.4042048   3.8924885  41.7128038
  34.2281032   3.5479122  41.3682938  32.8665280   3.1161132  41.8689394
   3.4489229   2.1377219  51.1726379   3.2086816   2.8601310  51.7528439
   4.4020852   2.0824979  51.2409258  33.1928563   6.3455522  14.9431348
  33.5588598   5.4655176  14.8547554  32.2479582   6.2066489  15.0072098
  99.9889183 102.8281593  67.8111887 100.1253033 102.7628040  66.8660116
  99.6908760 101.9564342  68.0710125  94.2628574  88.5976696  40.0682735
  94.1249752  89.4011497  39.5666289  93.7219238  88.7077332  40.8502579
  17.3015249  38.4445691  43.2339621  16.7651618  37.6610994  43.3552837
  17.0465481  38.7785721  42.3739243  87.2304249  81.3696384  48.1599760
  87.5644398  82.2666645  48.1641340  86.8917942  81.2360477  49.0452528
  19.4330359  35.4762197  66.5143204  18.9911759  34.8559833  67.0942307
  19.3893313  36.3117480  66.9793081  33.8112974  12.9426646  65.6694651
  33.1101799  12.3208797  65.8645248  33.9696264  12.8385091  64.7312117
  20.9329343   1.0353924  53.0944777  21.7462969   1.1279958  53.5905600
  20.7465696   0.0966946  53.1131172  28.5828996  15.9488904  85.0567055
  27.8971791  16.1961782  84.4363308  29.3872619  15.9505308  84.5378304
  29.0659046  47.3494291  60.1305580  29.9190450  47.6245070  59.7948217
  29.2683053  46.6596556  60.7625961   0.2400637  22.7880979  57.4635410
   0.4976988  23.5700464  57.9518223   0.4600382  22.0597458  58.0443573
  66.2554455 105.6328297  73.7076712  66.8631315 106.3709831  73.6621141
  65.3896523 106.0289097  73.6089230  41.5781212   7.8342754  31.1281276
  42.4324608   7.8880525  30.6998277  41.2060547   7.0088226  30.8175993
 110.8461380  96.9786453  66.7751455 110.2941895  96.2031078  66.8758059
 110.7907677  97.1927834  65.8438492  33.8878274   2.3330556  27.9082990
  33.4567189   3.0755273  28.3315158  33.5935378   2.3721099  26.9982982
  80.3216171  96.7309570  78.7140083  80.5998802  96.8556213  79.6213436
  79.6377659  96.0629749  78.7628412  54.6445322  10.5084944  21.5364838
  54.7885513  10.8711600  22.4105334  53.7798357  10.8312225  21.2827563
 112.0927429  14.6421492  86.4852810 112.1851826  14.0138912  87.2014999
 111.1976242  14.9707770  86.5689754  76.3044119 106.3361263  37.4515486
  76.8663120 106.9742584  37.8911924  75.5118036 106.3056374  37.9873395
  80.5484676  26.8587875  67.5444031  80.5437088  25.9026003  67.5881910
  80.9309959  27.0575070  66.6897583  85.1010227  98.8304615  68.0863142
  84.8801804  98.3108807  68.8592911  85.0693893  98.2063961  67.3612070
 104.3845940  98.7941742  52.3354530 103.5994720  99.3125725  52.1591663
 104.4974995  98.2563972  51.5516901 109.9472332  11.5308261  41.6305017
 110.1346970  11.4103770  40.6995964 108.9970016  11.6385782  41.6714811
  97.8455257  30.4032993  84.1128349  97.9767036  29.7982860  83.3827782
  97.4891376  29.8583484  84.8144436  44.9651146  12.7977872   0.9904367
  45.0502682  12.5079942   1.8987325  44.0463829  13.0526412   0.9054726
  24.5817685   8.2528681  53.5911798  25.3251171   7.6585537  53.6934233
  24.4990754   8.3724391  52.6450872  27.9137611  11.4047253  61.1122131
  27.1366644  11.6410291  60.6057405  28.6369395  11.4778543  60.4894018
  90.0808620  99.1990471  62.7661991  89.6852398  98.3715916  63.0401182
  89.3390083  99.7436810  62.5030279  27.6715589   0.6026296  69.3784714
  27.1808863   0.2125740  70.1018810  27.8442264   1.5002182  69.6626377
  15.3286183 105.6853008  36.4220786  15.6821036 105.1615334  37.1410656
  15.3768027 105.1087570  35.6595159  28.1186509  34.2228413  57.9123163
  28.6353350  34.8437929  57.3988104  28.5447669  33.3782601  57.7662325
 100.1222610 102.7310562  48.9126682  99.2999840 102.3816967  48.5691071
 100.0719833 103.6718750  48.7436342  79.3137026  23.4113574  54.2963934
  79.9059486  22.7038145  54.5510674  79.0011358  23.1608319  53.4270430
   2.3259185   9.5994854  21.3669515   1.7010078   9.3304747  22.0402670
   2.0194502  10.4618609  21.0865664 109.6531773  82.4691772  43.9427471
 108.8441849  82.8610992  43.6138630 109.4813347  82.3080444  44.8705053
  37.3066664  11.7385280  69.2344666  38.2507420  11.6096520  69.1431093
  36.9935489  11.8591857  68.3380079  32.3874402   1.8042129  53.1578827
  32.6474333   2.4932878  53.7692833  32.3608851   1.0091617  53.6902523
  76.4819431 100.9693527  63.6450815  76.2453604 100.0994492  63.3233356
  75.7203436 101.5137959  63.4456253  63.1474113   8.5784578  51.4020920
  62.9457664   8.6712867  50.4709864  62.3076630   8.3649975  51.8088961
   6.0036063  97.1288490  34.9118114   5.2642411  97.1136856  34.3040776
   6.7611986  96.9007397  34.3730617  57.3144960   5.4163539  69.6170616
  57.0976019   5.5311680  70.5422688  56.5982533   4.8864841  69.2671156
  77.1707296  86.8749714  83.0554390  77.7397633  86.9034958  82.2862720
  76.4422512  86.3119030  82.7936840  40.5222845  64.7416687   6.5006727
  40.5944395  63.9225149   6.9905901  41.0891390  65.3528595   6.9711578
  49.1857624   0.2906901  16.5104532  48.9263821   1.0728522  16.0234463
  48.8937426   0.4586066  17.4064231  64.2682505  66.7925072   1.0661152
  63.7066650  66.1504078   1.5003510  64.9921417  66.9296837   1.6771784
  34.3019772  45.0263214  13.2104874  33.4279513  44.7603321  13.4960771
  34.2266440  45.1157331  12.2604537  11.9562900   6.7955917  37.0206666
  12.3147094   7.5772488  36.6002131  11.6564178   6.2490749  36.2942863
  99.7041702  25.9897256  19.7244680  99.0539169  26.5869474  19.3546987
  99.2578411  25.1438379  19.7631586  34.8921013  23.6870289  66.2857151
  34.6563888  23.0436325  65.6173468  34.6992326  24.5332789  65.8821154
  93.3142567  96.8584347  38.1902933  94.0038109  97.4959946  38.3753896
  92.7884007  96.8354702  38.9897823   5.0436205  20.0410771  63.4988832
   4.1891775  20.3637433  63.7853193   5.0532812  19.1212320  63.7635040
  25.7216978   6.9674367  31.6412377  25.7535386   6.3902426  32.4041700
  25.6087995   7.8440690  32.0086622  34.6135807   3.8112730  15.6362271
  33.9752769   3.8048840  16.3495004  35.2444124   3.1314877  15.8732438
  39.1721821  26.4945078  32.9102850  39.9481988  26.8024564  33.3784699
  38.4485960  26.9897389  33.2942152  93.8561440  90.7103825  16.9635355
  93.4399319  91.0631752  17.7500081  94.7074413  90.3930473  17.2648990
  69.0936661  93.4277725  62.5120258  68.3632326  92.8110504  62.4635124
  69.1238117  93.8320160  61.6448975  26.2502050   7.0133698  41.9610357
  25.6797743   7.1773624  42.7119970  26.4762878   7.8852481  41.6370821
  94.0500069  88.5455704  66.0695124  94.2669964  88.7735462  66.9734955
  93.4901142  89.2617130  65.7696962   4.6712190   6.4777756  34.9666667
   5.1122254   7.3249882  34.9036169   4.7162157   6.1178255  34.0808654
  25.6364775  17.9129839  54.9613237  26.3919163  17.3354745  55.0709867
  24.9776173  17.3667157  54.5326900 103.2073212  76.7976379  37.3725605
 103.7889671  76.4413404  36.7010140 103.7839222  76.9874048  38.1126690
  27.9759908   4.5505083  67.4765539  28.3811617   4.5565334  68.3437538
  27.1633720   4.0587875  67.5952673 100.4773426  82.2267532  37.1268034
 101.1920261  82.7203178  37.5291109 100.1860428  81.6253948  37.8121829
  28.4897661   9.3533349  28.1798935  28.1741977   8.5397607  28.5732698
  27.8473163   9.5554495  27.4997187 104.8340702  95.6111431  46.4776659
 105.1097679  95.2481365  47.3193550 104.5093727  96.4864063  46.6891289
  10.8449683  -0.3225735  11.9009602  10.7789740  -0.0805404  10.9772193
  10.7111582   0.4987976  12.3739159  25.7914591  13.1584251  63.5004616
  25.5938101  13.1327260  62.5642443  25.3490520  12.3894322  63.8598490
  91.7937946  85.9193611  27.4323034  92.0349789  85.4067421  26.6607618
  92.6291847  86.2150383  27.7941442  97.1522045 100.7078171  61.6124296
  97.4204540 100.4794598  62.5024462  96.2790680 100.3265572  61.5201807
   3.4796694  37.1914911  63.0415869   2.7519983  37.8098464  63.1076479
   3.6839923  36.9642711  63.9487028  52.9545403  34.9119163  34.9837923
  52.7853870  35.7638693  34.5815587  52.2748756  34.3397069  34.6276188
  53.3688259  13.9916062  40.1399899  53.4385300  14.3384385  39.2505622
  53.9617205  13.2402217  40.1512146  32.6022053  21.0723925  42.2314596
  33.1736898  20.3876138  42.5788975  31.8120098  20.6078386  41.9557571
  94.8449612  89.6306229  59.4754314  94.1501617  89.6164608  60.1336813
  95.5699348  89.1560555  59.8821592  42.0259142  19.5195460  47.1940184
  42.0887613  19.3893719  46.2477970  42.2571135  18.6695647  47.5685978
  31.0305619  24.0775633  82.2891140  30.6979442  24.7704077  81.7185307
  31.0770726  23.3050776  81.7257881   3.3301988  21.3158083  25.4893780
   2.9354352  21.9219518  24.8624945   3.5215369  20.5310416  24.9757981
  84.2648602  82.4658775   2.0445178  83.8938904  82.6331711   1.1781342
  84.0631008  81.5464020   2.2179794  29.5528269   6.1884809  44.4227791
  28.6517644   6.0150886  44.6952724  29.9690366   5.3266108  44.4093037
   3.3517399   1.5238450  43.8484335   3.7067753   1.8429838  43.0187750
   3.6947107   0.6338552  43.9291859  15.0001335  21.9922900  72.4396324
  14.3660772  22.2994137  71.7916489  15.7063818  21.6080117  71.9202328
  36.0848475  19.0717030  74.3564081  35.8170986  19.7404313  73.7260580
  35.6952238  18.2619822  74.0265942  28.0495310  83.2367992  14.4727731
  28.0189228  83.5288429  13.5617268  27.8433180  82.3029613  14.4319987
  10.1834261   1.3580415  63.9011669   9.4200516   1.7036280  64.3638325
  10.0269330   1.5783329  62.9828978  46.1864758  43.0030107  80.8608246
  45.9441710  42.1317768  80.5470276  47.0626116  43.1507397  80.5047321
  22.9194164  85.8178520  38.4595680  23.6224532  86.4267635  38.2332921
  22.8651142  85.2253914  37.7097201 108.9267635  45.1759434  48.8533497
 108.6826038  44.3734503  48.3922386 109.8217773  45.3549862  48.5650253
  11.1967409   2.6333851  35.8728099  11.6445851   3.4562376  35.6763864
  10.3830802   2.6777253  35.3705955  86.5758514 100.3308105  73.5236740
  87.1349335  99.7122574  73.0535126  87.0732021 101.1486530  73.5267544
  25.5127478   5.1200420  60.7145452  25.8106089   4.8827079  61.5927172
  25.1550722   4.3080795  60.3553534  16.3644695 106.1042023  48.7328148
  16.2171197 106.6006279  49.5378447  15.5528259 106.2071896  48.2359600
  84.6540356  94.4988537   5.8388191  85.6093216  94.4783878   5.8958834
  84.3601990  94.5246983   6.7494369  92.7167892  93.4809303  65.5502748
  93.3183575  93.3566189  64.8161793  93.2867718  93.5805607  66.3127899
   7.1103579  94.4215965  47.4474192   6.3049495  94.9064732  47.6275492
   7.0333815  93.6255264  47.9733324  30.6207132  13.5494232  72.8153801
  29.6818519  13.5851943  72.6323748  30.9327364  12.7925169  72.3194313
   1.9974679  20.9619880  59.1021156   2.1983553  21.1278534  60.0231838
   1.4237501  20.1959085  59.1162920  10.5540359  62.8785086  54.8892021
   9.9303293  62.4489021  55.4745770  11.1859691  63.2940960  55.4758692
  94.9466801  94.9580479  58.3151436  94.5659828  95.2230453  57.4778414
  94.8248005  94.0090752  58.3440208  12.5510705   9.9053514  50.2055502
  12.7368176   9.4700813  49.3735266  11.7627764  10.4209697  50.0353718
 108.7124157 105.9220600  11.3848174 109.5674992 106.1628342  11.0283077
 108.5940647 105.0079632  11.1266637   3.7035087  93.3463192  37.9849577
   3.3695999  94.2363548  38.0971313   3.6140907  92.9461765  38.8498974
  59.1633558  13.8000488  45.5500555  59.7505093  14.4703770  45.2005625
  59.1285658  13.9784825  46.4898300  83.6935806  94.1466522  30.3615236
  84.4912815  94.0109634  29.8501587  83.6790371  93.4169292  30.9808111
  12.0045948  98.6500168   4.4593301  11.5655077  97.8141499   4.6167037
  12.7876449  98.6164093   5.0088155  96.0896397 100.8126736  47.8990841
  95.5372143 100.2347755  47.3726845  95.5680656 100.9962559  48.6804247
 112.2447681  33.4590507  30.9621453 112.5965595  33.8223624  30.1494479
 111.3705349  33.8416314  31.0368443  22.7743173  60.2141333  38.3735943
  23.7139320  60.3378487  38.2392383  22.3871374  60.3651953  37.5113273
 101.5452480  49.1288900  27.9458547 101.8881702  49.8941994  28.4073091
 101.5836906  49.3701458  27.0203543  37.5027704  11.4541602  49.0972090
  37.0345211  10.9214580  48.4543991  37.2041440  12.3481774  48.9305115
  19.8900843  15.7456374  11.4414740  19.1126621  15.7640553  10.8833468
  19.7503901  16.4537585  12.0701897  93.9755535 100.6164265  65.8607674
  94.2058468 101.0243893  65.0260448  94.1172028  99.6807194  65.7171822
  33.4611058  27.3477197  87.6996708  33.1952190  27.6706052  86.8386936
  33.2464385  26.4150596  87.6824760  64.0237999  30.6503916  66.9834995
  63.6075449  30.8120060  67.8301668  63.3888102  30.9656477  66.3403559
  50.2658176  22.2747445  68.3519936  50.6103754  21.4383483  68.0390215
  49.3151140  22.1658397  68.3289194  28.3929706  20.8359051  60.3311920
  29.3320608  20.8493137  60.1463652  28.2280421  19.9559104  60.6697750
  24.7010612  13.7679100  33.5752439  24.1926289  14.2542171  34.2242694
  25.2710176  14.4251752  33.1760144  32.7528381  57.0001173  73.4792328
  33.5124254  56.4892149  73.1995249  33.0787826  57.8977489  73.5444450
  33.7973595  26.0256124  45.1921844  33.9618683  25.0849795  45.2583361
  34.5639586  26.4318538  45.5965710  21.7116237  67.7791882  89.8960972
  22.5779271  67.9898167  90.2444935  21.7920375  67.9203272  88.9527798
  43.4855890  19.5890105  69.9009705  43.5005617  20.5205965  69.6815205
  42.5714254  19.4093513  70.1206446  46.5713596  17.5963283  53.7616396
  47.0202255  16.8620884  54.1807365  46.9936275  18.3744490  54.1255760
  93.5609150 101.8680096  59.8961020  93.8974380 101.7209339  59.0121555
  94.3269157 102.1393204  60.4019356  41.9156599  39.6082044  43.0813789
  41.2192297  40.2051926  42.8078556  42.6876116  39.9034882  42.5985432
  18.8117313  47.8540802  15.1313245  18.9319181  47.5313711  14.2382145
  18.2227039  48.6028194  15.0382149  15.2334952  33.0766344  29.2375755
  15.8174324  33.2305956  29.9802351  15.3730881  33.8294125  28.6630559
  73.6737061  16.3421154  51.7431974  74.5798445  16.5003061  52.0080042
  73.2011080  16.2212968  52.5667810  58.2512379  10.2875304  77.2482395
  57.4013090  10.7255602  77.2927904  58.5510254  10.4370379  76.3515759
  42.6605463  18.2187188  31.0072136  42.8221416  18.6736727  31.8337345
  42.8254890  18.8790107  30.3341317  94.0734005  77.6476669  35.0830722
  94.9150848  77.4297523  34.6826768  94.3000889  78.1983805  35.8324480
  10.8219409  44.6609068  42.8202772   9.9841064  45.1222038  42.7819729
  10.5877364  43.7554741  43.0241776  53.3431149  36.8456340  55.1116610
  53.8307047  36.0219646  55.1193905  52.5020313  36.6223335  54.7129869
  43.8949728   6.2029451  41.4731503  43.6231279   6.3929397  40.5752420
  43.2116985   6.5934914  42.0179796  16.6124177  17.4007463  55.7550478
  17.4759483  16.9971287  55.8424568  16.2937605  17.4816859  56.6540146
  15.1585257  51.4999819   8.4735125  14.7775221  52.3234510   8.7784249
  14.5343196  51.1725569   7.8259075  19.1250873  22.3401284  39.3301439
  19.7149205  21.8090343  39.8651814  18.8864851  21.7702579  38.5990167
  49.1357279  39.8552537  58.9706278  48.5401821  40.5794144  58.7778759
  48.6553860  39.3093085  59.5930767  45.4148245  33.0513859  62.4282837
  45.8614302  32.3249316  61.9934940  46.1189461  33.6483550  62.6814032
  27.6885962  42.8513479  28.3485293  27.8071880  42.0052958  27.9168296
  28.5558248  43.0697727  28.6897564  48.6426735  33.5740137  67.3990202
  48.1186628  32.7732372  67.4190712  49.0740442  33.5566449  66.5447092
   8.7918782  33.3939576  61.6267252   9.5161498  33.4904766  62.2450638
   8.2089108  34.1269755  61.8243790  20.0398874  11.9158304  66.6124821
  20.9717107  12.1218431  66.6866350  20.0178266  10.9902751  66.3693905
  31.2802482  98.3059502  22.8805161  31.5594459  97.8167152  22.1066070
  30.8652186  99.0936470  22.5290775  22.3516273   7.2144163  27.4200964
  21.6044044   6.6952610  27.1228313  22.0934939   7.5321168  28.2853508
  37.0314860  28.7504935  16.2337792  37.6313138  29.2523313  15.6818759
  37.5679064  28.0406046  16.5866864  20.0049686   8.2095683  52.8342533
  19.9808741   8.9388692  52.2147608  20.5530953   7.5509405  52.4076414
  14.0654767   9.0176040  20.3041577  13.5693276   8.2230419  20.1073360
  14.4923019   9.2442870  19.4779229  35.6424499  33.0451345  31.5986562
  35.3583646  33.2108307  30.6997275  35.9857011  33.8862348  31.9002533
  30.5505323   9.9592537  62.1805286  29.7672772  10.4398656  61.9126558
  30.2200460   9.1154808  62.4888420  54.9996185  15.4218602  70.8419323
  55.9354353  15.6228411  70.8327913  54.9251795  14.6052849  70.3480721
  21.5796518  26.3073134  29.4513512  21.3892770  26.9565392  28.7742281
  22.5085068  26.4305782  29.6469688  45.8689117  24.7280955  47.2005177
  46.1009026  24.5213008  48.1058645  46.6262197  24.4443941  46.6884327
  56.1195278  47.1596861  29.9117422  56.1190844  47.9270840  30.4838729
  55.3874207  47.3069477  29.3129396  88.6327648  88.4814358  52.2108459
  88.0821228  88.0889416  51.5333700  89.4716263  88.0274677  52.1304417
 109.8369217  26.7319250  33.9473271 110.5558491  26.9219732  33.3446145
 110.1731110  26.9826174  34.8077679  54.6420717  36.3158727  64.1859627
  54.7659779  37.2290397  63.9271069  54.2507505  35.9001255  63.4176826
  29.4418764   3.2027951  85.8725262  30.2810431   3.3767867  86.2988567
  29.4644141   2.2670412  85.6723022 106.2436581 102.9040241  79.8280859
 107.1644402 102.7669621  79.6053696 105.8901978 103.4009743  79.0902901
  87.9078388  98.3203983  52.7161121  87.2747326  98.3189106  51.9981909
  88.3787441  97.4923897  52.6218939  46.4845896  43.8729382  32.6052809
  46.5507126  44.3349886  33.4409666  47.3391104  43.9999533  32.1931005
  35.8361650  52.5266409  66.3847399  35.1133251  52.8631210  65.8551025
  36.1735249  53.2949543  66.8452930  51.4674807  23.9056277  62.0753384
  52.0095396  24.6670103  62.2819805  51.2775993  23.5089564  62.9255342
  93.1622791 102.5316715  54.7524452  92.5381660 102.5953674  54.0294933
  92.7682686 103.0484581  55.4552364  22.4035811  18.8019133  57.8163671
  22.1437621  18.8929272  56.8996096  23.3157039  19.0914786  57.8366852
 113.9391899  20.8833456  55.3806114 113.6594391  20.0549245  55.7700872
 113.7538433  21.5388346  56.0530758   1.9727671  21.7062998  28.5985184
   2.7312765  22.2000480  28.9101386   2.3482518  20.9588861  28.1330967
  16.1527312  79.9891806  42.0615244  15.8631003  80.7841873  42.5090790
  15.3451502  79.5857811  41.7432261  93.9098454 102.0260429  50.9595728
  94.1810894 102.1907234  51.8626451  93.8136959 101.0750771  50.9080076
  47.7636576   4.5934123  35.0449920  47.9005814   4.0326709  34.2814136
  47.2520113   4.0550575  35.6488347  19.3671644  13.5737526  49.4398403
  20.0622034  12.9738975  49.1690540  18.9076710  13.1081045  50.1386070
  52.5011826  40.3078556  80.7970047  53.3267641  39.8260522  80.7468605
  51.9294977  39.8697090  80.1665783  16.0840964  20.3066254  22.4681926
  16.3481247  21.1731601  22.7774453  16.8639708  19.9587727  22.0357251
  21.5683126  18.2944846  31.4057636  22.2128272  18.4632957  32.0930314
  21.0292053  19.0851176  31.3835502  13.5486138  83.7531853  36.7474389
  13.6163986  84.5972729  37.1937132  14.4371557  83.3979607  36.7706370
  35.2540922  23.5460806  49.3258142  35.4535747  24.4805527  49.2692137
  34.3630457  23.5120368  49.6738195  14.2087209   6.9561893  23.3248448
  14.6952093   6.5850878  24.0609455  14.8606133   7.0510793  22.6303935
  40.9813118  36.6633916  39.3395209  40.4010105  35.9826517  39.6802211
  40.3903961  37.3150563  38.9621878  40.4693842  35.9273458  50.8872652
  39.9700594  36.3207126  51.6029215  41.3295841  35.7467937  51.2663317
  74.6209431  24.1606116  54.0932894  74.5369434  24.9160600  54.6750736
  74.3498468  24.4875979  53.2354927  32.5496507   2.3162723  17.4081326
  33.0268502   2.7280703  18.1285048  31.9826102   1.6728944  17.8332925
 110.6689930  93.3006191  28.8421655 111.0732079  92.7541065  28.1682467
 111.0018253  94.1810322  28.6680126  60.5786228  22.0299149  68.0879164
  60.1958656  21.5097117  67.3814344  60.1393461  21.7188716  68.8794470
  36.6060281   6.1062515  52.5886965  36.5401649   6.7028570  51.8430710
  37.3173809   6.4642423  53.1197786  25.7246232  27.2673082  48.0565929
  26.2214732  26.7293453  47.4401760  26.3445544  27.9381633  48.3427286
  41.3518476  33.6274815  55.3502464  40.5788469  33.6781240  55.9125042
  41.1300373  32.9635930  54.6973419   4.8421758  21.4453387  51.7407608
   4.2562649  20.7968140  51.3504362   5.1545185  21.0321760  52.5457287
  34.5215940  59.0514231  24.6370268  35.3101254  58.7342739  25.0773263
  33.8995695  58.3274317  24.7088218  30.9121752  30.6528902  43.6118650
  30.0017262  30.8940792  43.7825727  31.3624716  31.4886665  43.4896231
  85.1832962  71.6375351  18.8061368  84.9569225  71.9794941  19.6710336
  85.0836086  72.3867178  18.2187581  26.4082789  50.1401711  34.7449994
  25.5637121  49.7747469  34.4815445  26.4541984  50.9846449  34.2966866
  25.3956819  53.4902477  67.8175831  25.3717184  53.3267069  66.8747616
  25.3449631  52.6200104  68.2129908  27.7962303  18.2191825  44.3469572
  28.1940627  17.3625481  44.1915846  28.5256815  18.7763369  44.6184540
  82.4518490 101.2274170  47.7385092  83.2476997 100.7075882  47.8509188
  82.7643013 102.1279907  47.6514864  28.0387640 102.1660233  28.4019685
  27.3609233 102.8411484  28.3708334  28.3168077 102.0636272  27.4917817
   1.1126987  89.9145985  47.7366543   0.2975841  90.2779484  48.0827713
   0.9722672  88.9677525  47.7375269  52.2187614  31.7760301  50.7331467
  52.7354765  31.9973707  51.5079021  52.7225256  32.1298480  50.0001669
  38.3441806  47.8351498  33.3469415  37.6708698  48.4023046  32.9711485
  38.7079382  48.3432150  34.0720510  46.6950512  21.3046622  16.5931273
  46.6978312  22.2606492  16.5450084  46.1442852  21.1045456  17.3499906
  55.0033522  12.9499269  12.6915956  54.7760963  12.6144969  13.5588169
  54.1619015  13.0563629  12.2478998  26.4443707  43.2636070  22.6871467
  26.7399192  42.8704786  21.8659687  25.5510974  42.9388237  22.8003216
  96.7036533  99.2023277  27.1077728  96.6007900  98.7301636  26.2815094
  97.6306152  99.1047478  27.3256111   9.1211498  25.5162859  57.4509144
   9.2989737  24.8876548  56.7513180   9.4698197  26.3450432  57.1225548
  45.9947824  18.3226812  59.1603851  45.9158707  19.0660024  58.5624933
  46.8045330  18.4885132  59.6431303  34.9867153  35.9270573  32.4607444
  35.7017708  36.5633678  32.4668360  34.3617511  36.2629151  33.1032801
  31.8446088  37.4788189   7.1103531  32.6126218  37.0764208   6.7048150
  31.5739036  38.1563377   6.4907408  39.1645694  49.5615959  21.4835382
  39.3987775  50.4895353  21.5011072  39.9965835  49.1023684  21.5979743
  19.0440905  89.8501110  34.8038292  18.8903022  89.1811275  35.4709387
  19.7143447  89.4714642  34.2349601  39.7752643   3.2717285  27.4591303
  38.8221765   3.3587396  27.4759889  39.9997306   2.9280457  28.3238435
  55.6407595   8.4612828  84.0861130  56.4882183   8.3246398  84.5096397
  55.3167582   9.2817074  84.4578075  47.9521799  50.0530577  75.7943487
  48.8842916  49.8451376  75.7297850  47.8705740  50.5341434  76.6178370
  95.7730293 105.9534550  71.1675596  95.8602524 105.2507973  71.8116760
  94.9208069 105.8000088  70.7596350  39.7051311  44.6965647  50.9873581
  39.4506431  44.8785591  51.8919802  40.3468943  45.3751802  50.7779408
  11.5103745  27.5490093  52.0300388  11.3826072  27.9919553  52.8689146
  10.6879354  27.0837736  51.8771315  63.8898659   9.9548215  20.5499172
  64.0188217  10.4864407  21.3353992  63.4296370   9.1753614  20.8611488
  22.7707219  43.8134909  28.7418723  23.1769681  43.3304119  28.0222654
  22.2411990  43.1606722  29.1997695  13.8560641  74.7000122  84.2647076
  13.3370066  74.5634556  85.0572777  13.2900500  75.2201939  83.6943817
  25.5036020  30.2708387  24.3905449  25.0139904  30.9971142  24.0044880
  24.8426938  29.5992875  24.5592213  35.5833793  56.5696335  21.0718846
  35.8621502  57.2360134  20.4438257  36.0184717  56.8135643  21.8888474
  95.4577732 102.7826881  61.9550371  95.8636951 103.6403656  61.8291569
  96.1898899 102.1662998  61.9374561  57.5164700  32.0694041  19.7600579
  58.0675268  31.8566227  20.5132461  56.7158985  32.4283290  20.1427937
  40.6288147  29.4779348  57.6077175  40.1613903  28.7220216  57.2522688
  40.0437212  29.8268199  58.2801580  45.1884651  10.2284610  32.3079157
  45.7947254   9.6688384  31.8226314  45.6844473  11.0297012  32.4759889
  40.0291920  35.7430553  30.0533223  39.1630435  35.6832480  29.6502829
  40.3189802  36.6360807  29.8668766  78.1344604  19.6277225  20.1742244
  79.0438175  19.9067330  20.0671792  77.6374817  20.4443622  20.2226186
  25.2451086  31.3825893  74.8154020  26.0320282  31.6467476  75.2920675
  25.5258107  31.3266993  73.9019966  79.0151739  19.3481541  10.2777338
  79.2196417  19.7281599   9.4233209  79.3124199  18.4405446  10.2135253
  45.1478577  15.6392968  62.6239491  44.2290640  15.7136250  62.3660135
  45.1273584  15.6218529  63.5807705   9.0510225  16.5434849  38.7240720
   9.6085471  16.8855941  39.4228983   8.2977259  17.1338367  38.7079811
  63.9547157  38.9163160  22.6146746  64.8794746  38.8300371  22.3831367
  63.8334560  39.8527503  22.7715778  27.8747249  42.1065187   8.8009048
  28.1649828  42.3299074   7.9165518  28.6822653  42.0553493   9.3122673
 100.6088161 102.2872639  51.6730165 100.6273746 102.4134827  50.7243586
  99.6776104 102.2636032  51.8933201 101.1656189  19.3264663  50.0234747
 100.5006409  20.0137806  49.9831104 101.5601254  19.4254875  50.8899546
  24.6094704  98.8772011  32.0576859  24.6328187  98.3045006  31.2910724
  25.5286860  99.0750599  32.2369313  18.6123407  32.7437544  18.2963884
  18.3211792  33.6547017  18.3367920  18.0175912  32.2759843  18.8826442
  38.9892912  52.6355839  20.8845305  39.2125869  53.5472536  21.0722184
  38.4824634  52.3516321  21.6452718  10.9941053 104.1439342  11.8433082
  11.8912816 103.8961506  12.0667231  10.5508387 103.3124161  11.6749907
  14.7497559  28.2078958  45.2420950  15.2006614  28.3465075  44.4092083
  15.2872372  28.6701512  45.8852625  39.6587157  40.6504488  17.3727953
  38.8398361  40.2010202  17.1638000  40.3117800  40.2312422  16.8124342
  96.9762993   5.9921712  37.5431919  97.8211594   5.6969094  37.2036886
  97.0995140   6.9261253  37.7128410  28.3648968  28.0548596  48.3811426
  28.3860922  27.2681332  48.9259768  28.7742066  28.7311196  48.9209270
  27.5356603  11.5807509  73.8544750  27.9899621  11.4861560  74.6916723
  27.8502774  12.4140954  73.5040665  11.9879079  98.4813595  57.2167253
  11.1494255  98.1110287  56.9409800  12.3127544  97.8716183  57.8792381
  29.5056248 106.9630623  50.3929663  29.1118050 106.1421871  50.6884289
  28.9595032 107.6450825  50.7839155  26.9101644  28.2262826  22.8205180
  26.2209892  28.6965752  23.2896614  26.7081618  28.3657122  21.8953228
  26.3897419  33.2159305  60.0577164  25.7854557  32.6252031  59.6081448
  26.9823432  33.5207582  59.3705940  74.1040802  88.0108547  60.3957558
  75.0444460  88.1621933  60.3006458  73.9738274  87.1131802  60.0900841
  39.2977810  19.8066556  50.7939434  39.3971729  18.9233148  51.1489916
  39.9685454  20.3218269  51.2421656  65.6669569  30.5989575  31.6603208
  66.3801718  31.1639500  31.9575357  64.9086523  30.8814692  32.1715903
  83.7938690 104.5555496  41.0161161  84.4563961 104.7901440  40.3663111
  83.6259460 103.6258698  40.8620834   2.7502915  97.8758335  51.8308687
   2.6061407  98.2955456  52.6789808   3.6098054  98.1905842  51.5508699
  18.3289325  15.1347685  24.9622989  18.0109823  15.4184842  24.1051841
  19.2573905  14.9478686  24.8234963  18.9232099  15.8631814  81.7056751
  18.0595577  15.4509008  81.7246914  18.9251506  16.4500749  82.4618435
  13.2293642  13.2009637  50.5973864  12.5121152  13.7332249  50.2531767
  13.9954019  13.4771264  50.0942469  11.7497659  23.3683085  37.4690390
  10.8035696  23.2967448  37.5948262  12.1226406  22.7550364  38.1023598
  18.9395332   2.9500079  44.2847633  19.1736758   3.8181338  43.9564848
  19.0390313   3.0181628  45.2343369  94.0587425  26.6032410  35.8198953
  93.5973358  27.4362087  35.7224417  94.8245430  26.6857147  35.2515769
  60.8952236 102.5157166  63.6265373  60.1688862 102.3428154  64.2255116
  60.6961060 101.9912720  62.8509426   9.9751520   5.6894648  58.8712740
   9.9538076   5.2285117  58.0326414   9.0952420   5.5746281  59.2301607
  11.7183650  40.7234812  37.3415804  12.2115958  40.8822775  38.1464028
  10.8061409  40.6693602  37.6264524  40.7577372  46.4042568  59.1761827
  40.2763176  46.7538691  58.4263563  41.6755438  46.5930367  58.9806890
  29.7993302  10.1111197  69.2128563  29.2567897   9.8994440  68.4532022
  29.4961143   9.5147169  69.8973942  26.5067387  28.4740376  38.2634830
  26.8929672  27.7352190  37.7931547  26.0056996  28.9459014  37.5982499
  38.6883616   7.8245729  36.5049243  38.1820726   8.2714319  37.1833181
  38.8511729   6.9520253  36.8632317  29.6358943  46.8798971  25.9823585
  29.0223908  47.5131798  26.3549137  30.4960728  47.1760845  26.2800074
  15.6020784  25.6650043  42.8958130  16.0525203  26.3761592  43.3514357
  16.0296237  24.8691559  43.2121420  10.1629186  29.2135453  40.0324345
   9.2071062  29.2462230  40.0722694  10.4111063  28.6068487  40.7299662
  51.2659407  25.2593660  13.9639807  52.1076488  25.1656508  13.5179102
  51.4153385  25.9440494  14.6159935   7.1226150  54.0166330  40.2744102
   6.3290197  54.5141363  40.4717159   7.6704627  54.1211987  41.0523319
  13.6576009  51.6293335  45.9438372  13.9129388  50.8129883  45.5141687
  14.4184601  51.8699265  46.4724588  56.5735531  12.5616586  77.8111792
  56.6659880  13.4992611  77.6420975  56.3909101  12.5042748  78.7490368
  11.3134432  21.3104486  33.6334229  11.1080003  21.9982743  33.0002427
  11.1643839  20.4938483  33.1567907  28.6211085  21.5938425  81.7099667
  28.8430476  22.4100685  81.2619114  28.1164384  21.8701148  82.4749565
  31.3139725  66.5517426  40.4099846  31.8124270  65.7348871  40.4329395
  31.7135286  67.0952988  41.0890484  57.0182276  29.7742796  59.4974804
  56.2574625  29.4144320  59.0414381  57.7643967  29.3020272  59.1280937
  45.9875250  29.0364408  44.1009951  46.8935585  29.0110016  43.7932777
  45.9497023  28.3725882  44.7895479   0.1975896 106.9375420  63.7748528
   0.2285385 106.3163948  64.5024872   0.1121166 106.3889599  62.9951143
  12.2361064   3.6231005  56.9511986  13.0171466   4.1306639  56.7307758
  12.1143472   3.7663648  57.8897524  41.3549376   7.6622182  62.7382183
  42.0571327   7.2031146  63.1990576  40.5495501   7.3104215  63.1174660
  42.2052050  47.9501534  35.1225162  42.0415068  48.8530111  35.3950620
  43.1498241  47.8359842  35.2268982   1.6631851  35.4527783  32.4735975
   0.9489429  35.4048777  31.8381500   2.4579951  35.4624414  31.9402933
  62.0088863  32.2155452  49.2224741  62.0144892  33.1714725  49.1734409
  62.3367405  32.0188046  50.0999880  10.3063619  92.9761791  29.5730948
  10.9076571  92.7841091  30.2926683   9.4368726  92.9418564  29.9718952
  30.2681875  13.6639726  59.6523380  31.0862088  14.1610372  59.6529818
  30.4590034  12.8894055  59.1233110  45.3000307  34.3357539  18.6935854
  46.2234926  34.0953708  18.6183167  45.2478600  35.2100110  18.3073401
  44.6122122  16.2316287  35.3560591  45.3643560  15.6677353  35.5364394
  44.4629383  16.1381233  34.4152045  49.9473047   8.0043739  90.1796150
  50.6021357   8.3411938  90.7911491  50.1508617   7.0724618  90.1000214
  17.6828623  44.6491098  36.8309402  17.1541345  44.1311407  36.2239933
  17.1625054  45.4366350  36.9898868  17.3524928  19.8482251  71.6005039
  17.3519337  19.8353839  72.5576162  18.2793367  19.8422897  71.3614273
  29.0725708  20.9911895  35.6185222  28.7092519  20.7045531  34.7806263
  28.5909986  20.4861689  36.2737131  53.9198256  12.4159968  15.2069294
  53.6095572  11.8280053  15.8955741  53.6915684  13.2916832  15.5188656
   3.0253178  91.0745335  58.5026550   3.8762918  90.8154392  58.8561344
   3.2067019  91.3159084  57.5943232  99.4138718   1.7598051  69.1229677
  98.9066505   2.4753857  69.5062542 100.2492905   1.7815968  69.5896816
  17.5171053  26.9290257  13.4422076  17.8174114  26.0947347  13.0816424
  16.5745831  26.8127561  13.5620654  14.9762225  38.6651802  30.3183985
  15.5915916  38.6465478  31.0513425  14.3593764  37.9575634  30.5055118
  54.1735411  19.3199492  56.5345383  54.0610552  20.2705026  56.5396929
  53.4155464  18.9916873  56.0508823  34.4341731   4.4085374  52.1797991
  35.0914311   5.0778186  52.3703337  34.3452382   3.9203066  52.9983044
 110.1548290 107.0669651  39.8193932 109.7193241 107.9180813  39.7728252
 109.5096779 106.4487076  39.4762135   8.2077825  13.9378095  38.8158870
   7.9356569  14.1744494  39.7025561   8.6847776  14.7048151  38.4990120
  22.6073456  12.8974259  62.0161247  22.3537755  12.0142281  62.2842550
  22.1128464  13.4753919  62.5972080  26.0532379  47.7454233  24.7186542
  26.8491769  47.8110266  25.2462959  25.5382705  48.5136223  24.9654579
  25.5167747  13.3334219  48.9531565  25.5538034  12.8738618  49.7920036
  26.0034084  12.7712226  48.3503723  88.7871456 105.4281521  35.7093263
  87.9862213 105.8842564  35.4510427  88.7688637 104.6111584  35.2109146
   9.2374051  59.3988752  64.4353962  10.1758993  59.5100069  64.2833757
   9.1820985  58.9734840  65.2910900  29.7839594  34.9440098  28.1949854
  29.0527105  35.2219486  27.6433897  30.5648375  35.1770878  27.6928520
  19.4469821  22.3620486  55.8586073  19.3363667  21.5791893  55.3190470
  19.8570514  22.0429087  56.6624880  22.2235250  15.7199836  63.7779379
  22.0866179  16.4134705  64.4233561  21.5459085  15.8692932  63.1185627
   1.9057105  66.5039968  60.9090424   1.5060312  67.2803688  61.3011265
   1.9313191  66.6953564  59.9715137   2.8799626 103.4399605  62.7770042
   1.9803128 103.1810188  62.9765272   3.0457157 104.1897678  63.3484554
  50.4349470  28.0605626  47.4569464  50.4890203  28.3054900  48.3806992
  51.3440752  28.0531168  47.1575212 100.2686882  10.0930226  35.5418062
 100.6672382   9.3015260  35.9036398 100.2902508  10.7228863  36.2622499
  92.8072739  91.5645885  90.8490086  93.7183094  91.6649818  90.5730247
  92.8026295  91.8417072  91.7652035  91.5727329 103.5235405  42.0650959
  90.9656334 104.0206623  42.6132965  91.1776829 103.5411835  41.1933947
  55.5652809  21.9713116  74.6806765  55.0805140  22.6882982  75.0895309
  54.9141979  21.2800884  74.5601273  70.8444929  89.4917870   0.9336078
  71.6826773  89.9413967   0.8262549  71.0739136  88.5632610   0.9716532
  29.3181539  10.2587724  52.7755117  29.0107632  10.7325530  52.0026731
  30.0995350  10.7363164  53.0541229   4.4597891   6.2966585  30.0827098
   4.3662179   7.0716506  29.5287585   4.7630587   5.6115985  29.4869304
  22.8127837 102.6353645  36.9682765  23.7428784 102.7332115  37.1721935
  22.6358557 101.7036533  37.0980525  83.4404182  66.3188982   5.7318431
  83.6455536  66.9658327   5.0568426  83.1728745  66.8395519   6.4891887
  41.9102859  25.0472641  69.2453957  41.1418104  24.9399900  69.8059082
  41.7535830  25.8681250  68.7786388  18.3499002   1.2209821  21.0716343
  17.8655326   0.5605126  21.5670133  19.1051865   1.4272220  21.6223073
  32.6636696  11.9120395  28.2977915  32.1044493  12.3540711  28.9366269
  32.3365808  11.0127521  28.2748365  36.9371581  30.8759332  22.8258443
  36.0066223  30.6802487  22.9355764  37.3863292  30.1832056  23.3102059
  53.8132095   3.8672003  50.5266428  53.8590860   3.7995955  49.5729351
  53.0042648   3.4120005  50.7603836  36.7629600   5.2210933  22.8753877
  36.1230516   4.5097235  22.9018831  37.3619819   4.9782327  22.1693945
  46.0203266  10.9707308  38.1623721  46.5075159  11.4122546  38.8580275
  45.4016733  10.4054105  38.6248803  33.5826802  42.5332403  76.8470430
  34.3678522  42.8040266  77.3228693  33.0677819  43.3352757  76.7584467
  70.6914186   1.3919020  42.9936123  70.0940990   1.5321039  43.7283087
  71.1908340   2.2061782  42.9322100  55.9265137  23.3646941  62.3828936
  56.7822170  23.3366752  61.9548607  55.4231167  22.6704764  61.9575834
  10.7914472  19.7527635  68.9447212  11.0111058  20.6360531  68.6484385
   9.8787510  19.6322644  68.6826181  78.3563852  79.8717642  86.4030361
  78.4916592  79.7348738  85.4653835  78.5537386  79.0233517  86.7998791
  12.5634289  28.5085034  43.7249517  13.2259965  28.4894252  44.4155121
  12.3177850  27.5913906  43.6033106  25.1498461  50.2801323  40.8912659
  24.6295190  50.9353495  40.4263067  25.7336617  49.9200821  40.2236176
  60.3043938  19.0868330  46.2697220  59.8746157  19.4116509  45.4785109
  61.1568642  19.5221519  46.2751389  39.2663097  31.3566136  66.6917944
  39.2025304  32.3038888  66.5700150  39.6565056  31.0363150  65.8785343
  29.9165463  43.1328583  41.8295813  30.6878328  42.6790190  42.1692514
  30.1007986  44.0606880  41.9759321 103.3375931 104.4565678  37.7935410
 103.6499882 104.7286510  38.6564493 104.1299820 104.3964767  37.2599339
  42.8197622  35.8857250  54.6119642  42.8293991  36.3943195  55.4228115
  42.4056149  35.0573206  54.8537540  55.0134373  20.6657982  61.6067219
  55.4635334  20.3374434  60.8283758  55.1449347  19.9835610  62.2651243
  66.6646862  31.0700941  53.1395245  66.8327332  30.2424788  52.6889181
  66.2492943  30.8143568  53.9631033  29.3683267   6.8458676  91.4465046
  29.8643994   6.5405804  90.6869411  29.8066831   7.6551831  91.7093468
  13.9579999  23.8931823  54.7351265  14.5871556  23.2053208  54.9524832
  14.2845726  24.2664862  53.9164495  50.1028585  36.7370629  64.4323206
  49.7742939  36.3138652  63.6391115  50.4524183  36.0188317  64.9597502
  72.8810883   9.0349227  54.2557859  72.8643227   9.6799165  53.5487270
  72.7355671   9.5474404  55.0510120  57.1707821  33.1159377  36.4116454
  57.6245213  33.7555289  36.9605303  56.4841175  32.7604294  36.9758582
  29.1103649  61.7173195  51.0213232  28.6738443  62.5611258  50.9044027
  30.0394773  61.9361591  51.0926723  52.3706913  36.1775661  45.5158186
  51.9501257  36.2347364  46.3737774  53.2961559  36.3481379  45.6908941
  59.8912621  13.3539581  42.8124332  59.4672537  14.2104411  42.7587366
  60.6285810  13.4886217  43.4077978 110.4040623 104.9565983  55.9039927
 111.2178707 105.4355812  56.0605955 110.6255054 104.3256569  55.2190828
  50.2367115  24.2946148  49.0522528  50.7923174  24.4112420  48.2815790
  50.7404327  24.6770453  49.7707558  45.4506683  23.3007169  75.4273081
  45.7565308  24.1977596  75.5614519  45.0473833  23.0580139  76.2607861
  35.4290366  82.5525665  71.3004017  36.2605739  82.2276878  70.9551048
  34.7747064  82.2555733  70.6680441  61.5579224  18.1809127   3.3410498
  61.7209387  18.0021608   2.4149260  62.3189163  18.6874914   3.6247733
   4.0081394  96.6683388  66.1791658   4.7050303  96.9462204  66.7736006
   4.3767110  95.9186745  65.7118416  31.0221887  54.8399973  43.1067324
  30.5348921  54.4171476  43.8138199  31.4535570  54.1187763  42.6484823
  70.2621269  60.8636284  -0.2692357  70.7747507  61.1099672   0.5006763
  70.0908852  59.9289560  -0.1539411  77.7378702  62.6183367   7.4245411
  77.4928188  63.3413506   6.8471080  78.6945677  62.6037073   7.3972553
  17.8180635   7.9726273  24.4302964  17.2353590   8.7058711  24.6278811
  18.6792064   8.2634193  24.7304726  31.4666629  32.1325612  51.0686493
  30.7933998  32.7912569  50.8981562  32.0758677  32.2173500  50.3352261
 105.5032063   3.9981866  49.7166204 106.3364220   4.4691774  49.7044659
 105.1059437   4.1922957  48.8676596  40.0946760  62.1870279  44.8158026
  39.3120909  61.8430948  45.2465010  40.7424212  62.2578001  45.5169821
  34.3860793  20.8180690  82.9469395  33.8250017  20.5770898  82.2098160
  35.2646494  20.5512810  82.6764393  17.1432185  45.7110405  21.3153434
  17.1773899  44.9567366  21.9036388  17.0426440  45.3300667  20.4430032
  24.9783087  62.5614977  38.2445049  25.2397037  62.9855728  37.4271536
  24.7836947  61.6583443  37.9941654  24.5360255  51.0918474  82.6722431
  24.1062260  50.6060886  81.9682884  25.1753569  51.6463137  82.2249699
  43.9263725  31.8745279  21.0038376  44.3593836  32.6289678  20.6043935
  43.4013510  32.2470427  21.7122269  21.1471772   6.7040527  42.5499630
  20.6913877   5.9854299  42.1117067  20.8422375   6.6637009  43.4563923
  35.7986498  47.5437784  69.9664116  35.2154613  46.7862511  69.9187660
  36.6764569  47.1773577  69.8595142  13.9460945  52.2535658  55.1567602
  14.4088030  52.3618031  55.9876728  14.4311035  52.8011894  54.5394230
  44.5490122  27.5349736  73.7227678  45.3161764  27.4966741  73.1516123
  44.8910904  27.8397584  74.5631981  23.0757856  34.4123435  41.8077278
  22.6184559  34.4039917  40.9668875  23.9350724  34.0363264  41.6167545
  40.7202244  43.7214565  16.9957721  40.5295658  42.8224850  16.7279363
  39.9135208  44.0231371  17.4134433  28.7531018  27.8128648  42.2251463
  29.0130877  28.7228560  42.0817614  29.5223308  27.3015785  41.9739389
  29.9217701  60.3776121  76.9150114  30.4020858  60.2852631  76.0922098
  30.5617833  60.7421589  77.5263405  73.9820862  35.1215649  77.2208309
  74.7668362  35.1848221  76.6764021  73.4683084  34.4204783  76.8199015
  19.6807277  27.6519084   0.1548432  20.0649929  27.5250578   1.0222994
  20.2541757  28.2896495  -0.2702159  74.2754316  17.7473414  54.6464109
  74.3297195  17.7234149  55.6017685  73.4960175  17.2323251  54.4378281
  37.4926877  34.6469951  45.0989866  36.8112230  35.0784755  44.5835638
  37.1679926  33.7556839  45.2269316  47.1664715  43.2716322  63.2162666
  47.1952820  43.2115173  64.1711426  47.6780796  42.5214148  62.9135036
  48.9219904  53.8917542  20.5046916  48.0879068  54.3450975  20.6272388
  48.9279366  53.6471415  19.5792937  54.7705698  44.5127392  26.2343001
  54.8167562  43.8661432  26.9385815  54.1691160  44.1291618  25.5960608
   5.8014846  53.4677649  31.2028337   6.6901773  53.3312082  31.5311766
   5.4730088  54.2141533  31.7040706  32.4749303   2.2154737  39.3598413
  33.1113529   2.9094037  39.1876292  31.6468382   2.5621325  39.0276933
  82.5465202  13.3387554  31.3105512  83.1778908  13.3372152  32.0299959
  82.3434925  14.2638648  31.1720419  34.5068359  38.6041403  57.8371572
  35.3859305  38.8276839  58.1428576  34.6371865  38.2890797  56.9427443
  54.3128872  26.4497495  18.6772954  53.8486719  26.7387056  17.8916478
  53.8572788  25.6515455  18.9447355  98.6719036  21.6881728  41.9808149
  98.7741470  21.4211488  42.8943157  97.7289486  21.8108320  41.8712378
  34.6673894  51.2420702  19.2388344  35.5487776  51.6138840  19.2050588
  34.1305351  51.9332933  19.6264291  63.3265066  26.8282413  42.7777910
  63.5689926  26.0507083  43.2806587  62.6446295  27.2490859  43.3014011
  92.3192978  33.0304956  92.1592045  91.8360424  33.7347269  92.5913620
  91.6446590  32.5085664  91.7248249  51.1693859  33.2282305  34.0013623
  50.8747435  32.6409149  34.6974087  51.7190266  32.6796293  33.4417510
  68.8505507  30.4570055  55.8573055  69.0078497  31.3975883  55.7748890
  69.5532560  30.0512528  55.3495646  38.7388515  59.8171043  40.9302855
  39.1732049  59.0731525  40.5130291  39.3845725  60.1538754  41.5514612
  16.3849974  95.0298309  16.1513805  17.0613718  94.7957420  16.7869544
  15.5961108  94.5899010  16.4681649  35.8106875  42.7452278  46.7792034
  34.9950004  42.3234510  47.0493698  36.0985756  43.2282257  47.5538445
  29.4509983  64.4971991  42.6658154  29.1434646  65.0219870  41.9267273
  29.9393535  65.1141644  43.2108784  64.7136211  47.1840763  34.3578744
  64.5411205  47.0305681  35.2868032  63.9178419  47.6052094  34.0328908
  33.7800980  43.8207293  30.0768518  34.3446159  43.0973196  30.3492975
  33.3817887  43.5193062  29.2603183  52.5206518   3.7281221  20.1140261
  52.8120613   3.0361786  20.7077670  51.5689611   3.6308128  20.0815821
  66.0132980  27.2647786  44.2898703  65.8018351  27.6571226  43.4427691
  65.4008961  27.6724839  44.9022198  80.6070709  13.0819571  27.7255464
  81.3089085  12.5656390  27.3292279  79.8728323  12.9944932  27.1177030
  35.3737020  82.9795170  54.3914938  35.9166145  83.4583282  53.7652159
  35.0589275  83.6502743  54.9974966  57.7160883  18.6253047  47.3907852
  58.6398697  18.5187387  47.1638346  57.7162790  19.2683768  48.0997896
  77.1714449  19.4164014  41.6098022  77.6471710  18.5883284  41.5449381
  77.8456163  20.0646067  41.8136549  35.0048542  13.8617420  69.6974802
  35.5191731  14.4121063  70.2880812  35.5020738  13.0460989  69.6363783
  39.5789313  24.3093467  38.2172704  38.7244415  24.0814447  37.8510213
  40.1696730  24.3107605  37.4641085  42.8942823  13.7735546  76.7259741
  42.3064232  14.0935409  76.0416746  43.7722731  13.9037383  76.3676214
  78.1415462  26.6080308  63.5526037  79.0163660  26.6669464  63.1686068
  77.8047609  27.5034237  63.5197592  50.4222250  46.5923262  29.4295979
  50.2621078  45.6777382  29.1969442  50.1345444  47.0883322  28.6631441
  21.0628796  53.0104971  23.6537528  21.5691018  53.7754965  23.3803463
  21.3999414  52.7988911  24.5242929  66.0838795  38.8361764  41.9633245
  65.2340984  38.6256194  41.5763330  66.6908503  38.2149982  41.5608931
  38.8450265   8.0610126  52.2641611  39.2860436   7.6148939  52.9871511
  39.4837141   8.0509794  51.5512753  46.7996597   6.0687596  44.0638638
  46.8870401   6.9276607  43.6504793  46.9746685   6.2302434  44.9909687
  11.7731929  60.8408260  23.4625244  11.6328621  60.1470375  24.1068816
  10.8949518  61.1677408  23.2674527  26.9862175  27.5522757  28.8439870
  26.6344309  28.3751154  28.5042667  26.6633129  26.8854046  28.2379770
  45.0594616  45.7816172  54.9760103  45.2121735  46.2368059  54.1479301
  44.6994734  46.4530182  55.5555439 110.8187771  40.8427858  45.8046770
 110.4320717  40.3474951  46.5267420 110.9860992  40.1875019  45.1272964
  34.2368817  12.6301312  55.5087137  34.1404867  11.8746436  54.9289036
  34.2734313  12.2539902  56.3881540  56.7866135  19.5962226  53.7473297
  57.5723553  19.8617530  54.2251778  56.0965538  19.5813334  54.4105244
  40.1695967 105.7133484  31.8288827  39.4927263 105.5530739  32.4864483
  40.7941389 106.2933731  32.2644830  77.3123980  26.8562841  24.1633129
  76.3642645  26.9431734  24.2619205  77.4492884  26.7834663  23.2187557
  44.8474693  40.8132172  62.9602385  45.7884979  40.6390429  62.9413795
  44.6036339  40.7124424  63.8803625  41.6565704  32.0666337  51.6490364
  42.0759487  31.5483809  50.9621811  42.3846960  32.4378753  52.1472788
  44.6921253  31.2737179  55.2883530  44.5854712  30.3371668  55.1218414
  43.9160967  31.5171480  55.7930851  62.5269127  48.5228682  48.2871532
  61.9284201  48.9332914  47.6629829  62.0534897  48.5388756  49.1189289
  55.7225895  34.1652393  34.2741585  56.0819292  33.8238025  35.0930190
  54.8334312  34.4394660  34.4987154  15.1162755  34.5199060  52.9581451
  14.2434359  34.6125889  53.3399725  15.6443262  34.1358089  53.6580467
  49.0283585   9.4598293  44.8890591  49.6765709   8.7560248  44.9156809
  49.5295715  10.2379739  44.6451187 113.4552574  18.3843756  56.1220884
 112.6067162  18.1566930  55.7421350 114.0465546  17.6960742  55.8173943
  40.8181429   3.7795711  90.7508183  41.4830112   4.1466218  90.1681900
  41.2099075   2.9715931  91.0823631   6.4630461  57.0875692  48.5719633
   5.6133735  56.8793392  48.9604568   6.2681091  57.7531528  47.9122400
  27.0262575  67.2712564  55.4126692  26.1630607  67.6201487  55.6349277
  26.9432282  66.3264513  55.5418205   2.0146029  33.9691305  69.9937153
   2.0315194  33.4916210  70.8231354   1.1034635  33.9158869  69.7052336
  30.8080721  32.6393485  57.3056412  30.6387568  33.0614710  56.4633942
  31.1283350  33.3452320  57.8672361  14.7138476  17.7221251  58.0188990
  14.8159361  18.6193264  58.3364487  13.8060439  17.6760757  57.7188873
  22.6817799  17.8287184  26.7433619  22.8832722  17.8170562  27.6790428
  23.3468819  18.4019840  26.3622618  32.9349113  71.1712742  40.5558825
  32.9155946  71.1162615  41.5113068  32.1872687  71.7257690  40.3327370
  38.3847189  16.5628660  64.5865250  38.7500787  16.0543597  65.3105164
  37.4903417  16.7636418  64.8622274  13.7748384  18.0792391  62.8913927
  13.3034897  17.2597253  63.0412579  14.4908917  18.0632722  63.5264063
  51.8420219  39.9633336  60.2997255  51.1957836  39.6708822  59.6570158
  51.4721966  39.7074723  61.1447096  21.4031696  38.0548167  54.1465902
  21.1797857  37.8587461  55.0564718  20.7674885  38.7196803  53.8818312
  72.8875160  34.6669316  69.6263266  73.0628777  34.7457480  68.6886311
  72.2822332  35.3833008  69.8178387  35.3859735  38.4939504  49.9917221
  34.5231223  38.8929510  49.8798323  35.7549119  38.4696102  49.1088152
  26.1296821  51.9770765  65.5699587  27.0818734  51.8797016  65.5610275
  25.8132744  51.2914515  64.9817133  28.5415649  13.7010443  64.3737078
  27.6653957  13.3779347  64.1635656  28.8041711  14.2010951  63.6009073
  34.9401093  10.5306840  47.9645443  34.2158079   9.9055475  47.9358339
  34.6089196  11.3022554  47.5049543  13.2197201  13.4373236  73.7242460
  13.4570456  14.3485141  73.8964081  12.3210251  13.4814858  73.3977032
  41.4857101  33.2718110  27.0990419  41.5162325  32.4494696  26.6101122
  40.5523443  33.4684873  27.1788812  52.2329521  29.3404078  58.3866215
  51.9607925  29.6678209  59.2439222  52.1281767  30.0894070  57.7998877
  42.2430229  50.3166485  36.7210293  42.3290300  51.1529303  36.2633538
  42.6426983  50.4699516  37.5771785  49.4220066  31.1772919  27.5460386
  49.5000553  31.4207864  28.4684539  48.5058594  30.9198356  27.4429774
  71.4187574  30.8017588  21.0305476  71.6012192  31.5830755  20.5085468
  71.3482857  30.0956202  20.3881836  10.8450317  20.9913063  18.8218129
  10.2039051  20.3407288  19.1080594  10.4751587  21.3540649  18.0169344
  47.4781036  50.5942774  19.6921480  46.9506788  51.2830782  19.2876601
  46.8492270  49.9046230  19.9045491  32.5446367  57.6050377  22.4670100
  32.0181131  57.0890522  21.8564677  32.9880714  58.2495213  21.9154310
  36.7860007  61.7836666  66.6623974  36.2840486  61.2505531  67.2788906
  37.6764607  61.4365196  66.7153406  29.4846582  53.4416723  53.6154175
  28.6035180  53.8078737  53.5397959  29.9060273  53.6577177  52.7835512
  28.5685992   4.3334913  80.4740429  29.2616343   4.1168877  81.0977554
  28.5921192   3.6226210  79.8334694  43.6832190   1.5778510  62.8414726
  43.0471039   1.3013317  63.5011196  44.3883133   0.9334943  62.9037523
  39.3752289  16.9594610  51.9711971  39.4118047  16.0968316  51.5579605
  38.5549617  16.9541311  52.4645185  47.9954386  23.1705165  45.9286594
  47.9588795  22.7066326  45.0921726  48.8696289  23.5599113  45.9485817
  74.0434074  37.3780847  45.5920839  73.0973291  37.2345042  45.5685234
  74.3574142  36.7926979  46.2812519  24.0740895  13.4998167  53.6520195
  24.9924707  13.2939851  53.4775496  23.8726282  13.0292046  54.4608259
  41.8106461   5.7106751  75.4771376  41.5661240   6.1580497  76.2872601
  41.6896677   6.3697892  74.7936440  33.4830809  28.0452228  48.3327246
  34.2703891  27.8663254  47.8185511  33.7972498  28.1194592  49.2338419
  57.2777700   9.5290136  27.3754549  58.2119465   9.4077069  27.2056508
  56.9303608   8.6401492  27.4493265  28.9401746  15.0222301  40.5440378
  29.5365191  15.2831244  41.2458467  28.1507730  14.7270668  40.9978628
  16.9242287   5.1957852  70.7551336  16.8820477   4.9042749  69.8443794
  17.1057343   6.1338925  70.6981897  77.8234673  13.7890291  33.7511706
  78.7572145  13.6865795  33.5671854  77.6539278  13.1843328  34.4735479
  17.3297024  57.9871655  21.5439272  17.1794617  57.6904202  20.6463742
  16.7168057  57.4748707  22.0713186   1.7705916  33.6335826  24.0222406
   2.5132382  33.1333733  23.6838675   1.6175592  33.2737017  24.8959112
  52.8438425  42.9808998  61.3621807  52.8437233  42.2419453  60.7537508
  53.3230448  42.6615334  62.1267700  30.4501247  31.5838194  46.5664625
  30.4186487  32.0138645  45.7118845  30.7269430  30.6880164  46.3737488
  71.5685034  19.6901226  43.4735537  72.4485111  19.9501944  43.2011938
  71.6146755  18.7375009  43.5548544   9.4540113  32.6798558  39.8605132
   9.6679163  33.5806227  39.6174121  10.2999830  32.2775412  40.0572538
  53.2668591  28.2937717  27.7029943  53.2976341  28.9201522  26.9798541
  53.6396027  27.4903393  27.3399639  37.7075052  32.5685692  70.4028988
  37.7104712  33.0462575  69.5734215  36.7807913  32.4176764  70.5890799
  28.6006427  53.8691473  48.3830261  29.1105628  54.6058178  48.7199593
  27.9237056  54.2743969  47.8410292  58.4229660  25.5844140  32.1895289
  59.1795826  25.1064801  32.5291562  57.7121639  24.9433613  32.1958971
  49.7385216   1.0506460  46.0665274  50.2181578   0.2480595  45.8615017
  49.4958305   0.9559706  46.9875956   0.4277997  36.0326767  48.1549788
   0.4740497  35.7976031  47.2282457   0.4928261  36.9876289  48.1633759
  28.4479094   7.8507262  56.9292355  29.1228676   8.1421244  56.3162518
  27.9860878   7.1536523  56.4633560  23.4453583  19.2964602  41.7879820
  23.1850719  18.3873415  41.6397047  23.2720423  19.4466913  42.7172947
  21.0827327  65.3134489  50.4777050  20.6307936  65.7616043  49.7627687
  21.9574142  65.7020807  50.4890728  82.6650429  81.7107487   6.2774205
  82.2324371  82.5641632   6.3052791  82.0516872  81.1465740   5.8065259
  36.0259581  17.1039033  66.4314890  35.4559398  16.3877177  66.7114687
  36.2511277  17.5614703  67.2415304  57.8116798  17.2746301  39.3155408
  57.0970249  16.8641579  38.8287067  57.3907852  17.9755151  39.8133755
  41.1472607  22.5428414  23.4796500  41.3053417  23.4441829  23.1988907
  40.9387541  22.0734525  22.6719165  35.3861141  57.0906019  47.9791164
  36.0008669  56.3791084  47.7999878  35.2135110  57.0271921  48.9184904
  44.8677540  18.7642157  37.3526573  44.6032429  18.3874202  36.5134382
  45.3095293  18.0476665  37.8083181  48.1188202  47.1352530  33.1774473
  47.9722261  46.7480707  32.3144102  47.7513742  46.4989901  33.7909508
   4.4274300  23.7349916  29.6777081   4.8469010  23.3120751  28.9284301
   5.1414025  23.8892579  30.2963185  60.4516792  43.8267994  53.1112862
  59.9549437  43.2510948  52.5298643  60.3867722  44.6911526  52.7051926
  71.5754938  29.8751426  66.9476461  72.1923018  30.5654931  67.1909475
  72.0824003  29.2876768  66.3871479  44.7088909  37.1678090  70.7221985
  44.9541092  37.6118779  71.5339279  44.7614670  36.2357640  70.9337711
  44.0682697  10.7416546  61.3004065  44.7914505  11.3332033  61.0923004
  44.4798040   9.8819262  61.3883686  17.1786284  18.7664676  39.4546485
  16.9101512  19.1628158  38.6257577  17.0130265  19.4448984  40.1092768
  42.5590849  41.7628050  68.2457304  42.6649284  42.6756001  68.5137510
  41.6422319  41.6963005  67.9789162  54.5074272  31.4307761  73.8788128
  54.0239954  32.0601916  73.3436871  55.4281282  31.6408634  73.7225819
  53.1096268  29.6162844  30.2431846  52.5451279  30.2670717  29.8259878
  53.2946730  28.9810705  29.5514536  52.3127699  26.9316483  51.3240385
  52.3274851  26.4976954  50.4709864  52.5596857  26.2467456  51.9454670
  49.2752171   9.2227906  50.4217148  48.9779139   9.1412920  51.3279200
  49.7683287  10.0430143  50.4042673  47.9756069  15.3933346  48.1472111
  47.6081991  15.8856654  47.4131441  48.5232782  16.0271096  48.6104774
  29.6326113  24.6532750  47.0141411  29.1070676  25.0216126  46.3039541
  30.2754807  25.3336835  47.2141218  77.9240990  28.2764411   7.2189277
  77.8512526  28.2770538   6.2645042  78.8574934  28.4046316   7.3879778
   1.7705125  25.2007771  18.5244143   1.5561746  25.6230998  17.6925886
   0.9217340  24.9663210  18.8996959  22.8265548  30.1030326  37.7735782
  23.7125349  29.8909640  37.4798131  22.8034186  31.0597444  37.7935719
   9.7823751  64.4232702  31.1239791   9.2318857  63.8978148  30.5433869
  10.6077719  63.9410067  31.1727166  63.9397764  54.2665768  32.2062492
  64.5050478  54.2315865  31.4345789  64.5429420  54.2134047  32.9475951
  32.4294472  41.9424963  27.9310250  31.6951156  41.9458389  27.3170400
  33.1313801  41.4908791  27.4624467  71.5756941  38.5571837  27.3593426
  71.4316463  37.6661468  27.0406938  71.8908024  38.4429026  28.2559371
  39.7669172  32.9062128  42.1878099  38.8780642  32.6650000  41.9270611
  39.6905661  33.8112020  42.4901295  31.0471988   5.9618789  77.2270775
  30.9778619   5.1781040  77.7721691  30.8284569   6.6836596  77.8165007
  77.7478743  27.1291661  46.2028408  77.4054766  26.9336200  47.0750523
  78.5909700  27.5521064  46.3657761  71.3014364  48.2315350  25.6402349
  70.8208752  47.9752827  26.4273977  71.0247993  47.6013756  24.9749541
  20.6001449  20.6969213  46.3687706  21.5318513  20.9071112  46.3056946
  20.5558324  19.9986386  47.0219707  34.6201277  90.4816246  39.5258904
  34.2742062  89.6323776  39.2513847  35.0128841  90.3146553  40.3826857
  71.4594364  45.4043341  29.2808342  71.1072302  45.8528566  28.5120606
  72.0780325  46.0287189  29.6599293  44.3179512  49.2996550   8.7342846
  45.1664543  49.4673872   9.1443408  44.1421986  48.3765316   8.9164561
  52.8919935  29.5616484   6.0764647  53.6282921  29.1474366   6.5264904
  53.0160141  30.4988146   6.2266970  72.0821810  58.1790257  27.1614695
  72.6516294  58.8054848  27.6081347  72.6433706  57.4216938  26.9949174
  16.9597888  66.9405222  61.2052584  16.7203724  67.7656698  60.7833004
  17.8633249  66.7843580  60.9305429  82.9229927  30.0089788  41.8634796
  83.4327602  30.8119535  41.7557716  82.9012680  29.8641348  42.8094053
  41.5616655  25.7909083  60.5153656  42.3444891  25.5210924  60.9955931
  40.8601999  25.7635832  61.1660814  19.2114198  57.7798557   7.1511865
  19.8430955  58.3449936   6.7063969  18.3614993  58.0513525   6.8045515
  49.7063780  18.3735394  59.3412828  49.6850204  18.6711287  58.4317684
  50.6377602  18.2771575  59.5399475   2.5954291  63.0385494  82.5811577
   1.7366734  63.4460497  82.4683952   2.4034598  62.1128321  82.7309132
  24.0792227  18.9238346  47.0585680  24.2832828  19.8584354  47.0252180
  23.1925750  18.8849175  47.4171400  94.4448376  39.5937896  28.4509349
  93.8646507  40.2222347  28.0211949  94.4110394  38.8164997  27.8933406
  32.3050594  22.7293706  13.8458991  31.7892694  23.4863257  13.5680234
  32.2321343  22.1101832  13.1195951  45.4287481  48.2957840  33.1328773
  45.2145863  47.4940538  32.6558113  45.1078415  48.1390238  34.0209508
  53.6572218  14.1008615  51.1520100  54.4520712  14.3745184  51.6097832
  53.8492012  13.2136881  50.8482027  65.5351496  34.0546370  40.6583166
  65.4088688  33.1175900  40.8074093  66.4401054  34.1291499  40.3554344
  59.5202351  42.5131702  59.6597958  59.8641825  41.8405104  59.0720367
  60.2912188  43.0117464  59.9304199  59.4597483  94.5314884  34.5153809
  59.3172169  93.5942268  34.6475148  58.5964060  94.8749638  34.2854047
  93.9260101  51.4211416  40.9970903  94.0036583  50.5833673  40.5406475
  93.2265472  51.2821054  41.6355610  83.3326721  51.4658594  16.5209031
  82.5961876  50.9999228  16.1250222  82.9252243  52.1421909  17.0620072
 102.0689774  67.1197462  48.4420061 101.5417480  67.6992512  48.9919376
 101.6040993  66.2832308  48.4609175  67.7223635  68.1053114  56.4315987
  67.2358656  68.6752129  55.8359814  67.2132158  67.2951555  56.4571953
  39.5688033  23.2178473  90.5953312  39.6027017  24.1671801  90.4776478
  40.3045368  22.8862667  90.0805664  53.3612633  82.7408695  50.8207417
  52.4811649  82.6507092  50.4553318  53.7299681  83.5019302  50.3723288
  62.0752335  94.4071007  38.7346077  61.2148142  94.2031574  38.3681202
  62.1225071  93.8885212  39.5377707  88.9968014  77.7452803  68.8124514
  89.1202068  78.5909176  69.2436123  88.1886578  77.8483152  68.3099365
  69.3190956  79.0140295  17.6662302  68.5523558  79.2225647  18.1999421
  69.7532129  78.3032799  18.1380463  63.5528898  25.6704760  22.7416253
  64.2995644  26.1886668  23.0419326  63.3711338  25.0706649  23.4651065
  69.7845173  79.1670179  64.7960472  69.9674845  78.2792377  64.4884825
  69.5591068  79.0587044  65.7200003  41.3352251  57.9976177  46.5302324
  41.9358683  57.3440647  46.8884659  41.1589241  58.5879374  47.2628069
 102.2975731  56.5927219  28.2513690 101.4937782  56.2296581  28.6232996
 102.7173901  57.0445919  28.9833474  20.3817081  98.5556030  11.2454641
  20.2692318  98.3376503  10.3202200  19.4921088  98.7026405  11.5667534
  63.7023497  69.1163063  59.6930599  63.5986328  68.3378839  60.2403545
  62.8174734  69.3121862  59.3850756  43.9255571  42.7239609  38.6137486
  43.5404825  42.5614071  39.4748664  44.6978474  42.1591234  38.5862422
  48.5574341  57.5523424  19.1358709  49.1252470  56.7822790  19.1072094
  49.1157627  58.2488871  19.4813085  64.4305801  78.2826805  50.4619503
  64.2261887  79.1175508  50.8831978  64.9091816  77.7891779  51.1280012
  74.1847038  63.5020161  44.3744946  74.6110296  64.2722845  44.7502136
  74.0232420  63.7391758  43.4613037  90.9848404   7.6891142  25.4548788
  90.7390881   6.9174087  25.9650803  91.9374466   7.7363324  25.5358028
  67.5881720  58.6592531  47.1481848  68.4510183  58.3261204  46.9017124
  67.7710342  59.3492889  47.7858686  66.0246134  46.1322784  43.1978130
  66.6789484  45.7857466  43.8044405  65.1886225  45.8178043  43.5419893
  82.7067947  56.1894846  37.8812814  83.1793404  55.6413984  37.2547579
  83.3824635  56.7434740  38.2721853 100.7926655  37.2509551  19.8540688
 101.3249588  36.7573643  20.4779840 100.3790951  36.5811253  19.3095386
  78.1668615  67.6461697  53.6775208  77.6540709  68.4512711  53.6061716
  79.0023422  67.8565931  53.2604790  79.2725563  87.9107475  75.2399445
  78.5565376  88.5422516  75.1710320  79.2474413  87.4290085  74.4131851
  82.7990055  72.4828720  31.5713406  83.0977726  73.0789423  32.2581267
  82.2376537  73.0218077  31.0139704  91.4506721  72.5024796  46.1496592
  90.7678509  73.0293512  46.5648556  92.1562290  72.4725294  46.7958212
  97.8596497  73.0687714  62.8792810  98.0929947  72.2330761  63.2834959
  96.9274139  73.1745625  63.0689716  80.1055813  78.8382483  42.6867676
  80.6661129  79.1030312  41.9574308  80.6786156  78.8695097  43.4528542
  92.9250622  86.8277073  74.4390440  93.2497501  87.3477459  75.1741409
  92.6752186  87.4749851  73.7796164 102.8529263  15.5031049  68.6098289
 102.2782135  14.8074257  68.2905102 103.7226105  15.1038885  68.6322689
  88.4365177  82.6654148  66.0336971  88.1517982  81.9230938  66.5667439
  89.1180992  83.0880547  66.5562296  66.9165277  59.1119766  36.2976694
  67.8184748  59.3788052  36.1201119  66.4192677  59.4330502  35.5454206
  86.2680531  64.2647123  36.2849402  86.8365002  63.6120319  36.6937304
  86.8695927  64.9278927  35.9464645  76.6147327  84.2312622  52.3960829
  76.8568802  83.8199234  51.5663910  76.6599703  83.5219765  53.0372524
  61.2288141 107.2434616  31.3463593  61.3060093 106.6960621  30.5649400
  61.6091633 106.7146778  32.0477533  29.4708395  77.8539276  27.5077391
  30.1612115  78.1216478  28.1143260  29.9334168  77.3983622  26.8043804
  78.0519772  95.2127075  69.4672728  78.1696320  94.9304390  70.3743076
  77.1111584  95.1308823  69.3110895  68.2965088  62.3375845  46.3031054
  69.0893173  62.5403690  46.7996550  67.7955580  61.7586517  46.8776655
  68.1956196  26.4273691   7.2492689  68.9971972  25.9935403   6.9568640
  67.4888659  25.9119630   6.8605661  44.8994493  84.5823765  55.2747631
  44.7488546  83.6376286  55.3064108  45.8468294  84.6773338  55.3732109
  55.2741671 104.3680286  61.0744667  54.9282932 103.5148621  60.8123493
  54.5744658 104.7598362  61.5970898  58.0569220  85.7498550  13.8283908
  57.9079533  86.3667965  14.5449233  59.0007830  85.7862091  13.6733603
  65.9401226  85.9998226  20.3584552  65.3330231  85.9863377  21.0983753
  65.7643700  86.8321323  19.9195826  74.6336222  85.0275517  20.5001640
  75.3485107  84.5496941  20.9206629  74.9346256  85.1675987  19.6023798
  51.1427259  72.9859734  33.1927824  51.2892962  72.8664160  32.2544575
  51.1364698  73.9352989  33.3151746  70.2561140  77.1675348  56.4543962
  70.5950594  77.1511745  57.3494244  69.4242287  76.6967154  56.5046740
 101.2344074  75.2881813  72.8012848 101.6788387  74.7296429  72.1635199
 101.7356586  75.1753235  73.6088991  78.8983583  69.3581867  49.7869825
  79.5224142  69.1412783  49.0943527  78.6906481  70.2812290  49.6417665
 105.2224064   7.9820454  27.5973463 104.7925854   7.4435049  28.2617688
 104.7202778   7.8225440  26.7981815  68.4717321 104.6643162  16.1074674
  68.5526133 104.7431850  15.1569569  69.1918468 105.1913929  16.4536738
  37.1008348  76.3351297  21.4835835  37.2616553  77.2510958  21.7102480
  36.4015031  76.0608196  22.0768142   6.6910464  74.8325396  30.2190280
   6.7020142  75.3548479  31.0210919   6.1880875  75.3587198  29.5974183
  88.6675549  84.9933147  71.9624662  89.0753651  84.9481010  72.8272676
  87.9399872  85.6054974  72.0724678  74.0479898  58.4094048  87.6006889
  73.6918306  58.0223036  86.8009853  73.6220741  59.2643404  87.6632214
  56.3461685  85.2804565  50.9797287  56.4283276  84.7906113  50.1614809
  55.4283762  85.5510235  51.0057878  72.9033661 101.0503197  75.7350779
  72.7911806 100.4136276  76.4409637  72.9959822 101.8910122  76.1832905
  72.4879837  69.7238159  39.0447402  71.7761469  69.9217701  38.4361911
  72.3256636  68.8208055  39.3176079  83.6655140  79.9691820  35.6463075
  83.0378056  79.3241501  35.9721041  84.1079330  80.2908325  36.4318299
 102.3551083  83.1496239  32.2673249 102.2685051  84.1026020  32.2433925
 103.2706070  82.9865551  32.0403838  70.9814358  97.2208500  59.5170116
  70.9593964  98.1649017  59.6735430  71.4872456  97.1235847  58.7102127
  49.3392181  76.1344099  60.5356073  49.5756292  75.7691336  59.6830177
  49.5856524  75.4554558  61.1637211 101.4202118  67.7030993  44.3530703
 102.2035408  67.8182554  43.8151407 101.1808586  66.7839956  44.2339516
  26.5865469  92.1176243  31.5267181  26.6356397  91.5459156  32.2928572
  25.7387328  92.5545025  31.6078115  74.8297119  79.0193033  56.5433788
  75.4267216  78.4549856  57.0346546  75.3835297  79.7298574  56.2199068
  71.7761374  87.3634529  25.8872890  71.3318443  86.8715096  25.1967621
  71.1499977  87.3789310  26.6111279 106.2207222  54.1807890  48.7972593
 106.7300606  54.9795866  48.9341259 105.3466702  54.4915390  48.5612392
  85.9991455  87.8632164  33.6416292  86.4103127  87.7014256  32.7925181
  86.1546230  87.0608044  34.1398168 107.4731064  85.8649349  53.7910700
 107.9718113  86.0475254  54.5874310 106.5625954  86.0308647  54.0353251
  95.3423691  66.9983244  55.7779789  95.0741673  67.7916002  55.3142834
  95.6418419  67.3098326  56.6320992  82.4397564  94.5138168  40.8824778
  82.9833794  94.0037346  40.2820396  81.8761730  93.8655281  41.3047791
  64.2024851  70.8635187  54.8402452  63.5787439  71.2361336  55.4634190
  65.0236320  70.8058405  55.3287363  74.9235821  77.0158434  34.2126751
  74.6920395  77.5836849  33.4777093  75.8244038  76.7467117  34.0328836
  75.6155014  57.3546362  38.0588627  76.4311504  57.4828243  37.5745893
  75.8186388  56.6662645  38.6921954  98.8310146  35.0622344  54.3258476
  98.4903336  35.9496140  54.2130327  99.3050003  34.8826170  53.5138702
  88.8409328  84.7053623  53.4615040  89.6204662  85.1409912  53.8061476
  88.1179619  85.2871513  53.6961603  61.7072535  87.2025585  56.5891790
  61.0506201  87.5808430  56.0044003  62.4146175  86.9247341  56.0072231
  77.1115446  79.3235016  54.3035460  77.6305342  78.8716602  54.9689198
  76.6839981  78.6202002  53.8148737  96.9099808  78.0354977  61.5751457
  96.7494869  77.2466660  62.0930433  96.6040707  77.8113604  60.6962776
 104.5486164  87.4134159  25.4745817 104.0991402  87.6620388  26.2822890
 105.2528667  88.0554676  25.3850102  70.2047920  59.6673965  50.3082848
  71.0914707  59.9073839  50.0391340  70.1704931  59.8838139  51.2400675
  85.3696060  56.4965773  56.5216827  85.0905132  57.4111128  56.4772749
  85.8422089  56.3503313  55.7022429  63.1326342 106.0425186  26.6769075
  63.8001585 106.4994812  26.1652207  63.1991577 105.1297188  26.3965583
  68.3312893  65.8775139  43.5749578  68.9222527  65.2909136  43.1028461
  67.4687862  65.4724216  43.4842539 100.0462914   5.8242708  52.8011274
  99.7010612   5.5805296  51.9422674 100.6908131   5.1455760  53.0015993
  74.7988892  74.0583658  19.1669118  75.0960016  73.3083344  19.6820903
  75.6006622  74.5368767  18.9561510  70.2073383  93.2644081  37.8998709
  69.5924139  93.1274319  37.1792173  70.1795912  94.2072868  38.0624580
  90.4769993  63.4004784  49.4623089  90.2310658  62.5863981  49.0229607
  91.3973713  63.2783747  49.6951771  96.9552517  79.8895741  17.3872840
  96.5337086  80.7380009  17.5240123  96.8773079  79.7322702  16.4463210
  73.5915422  67.0269918  52.2061300  73.4134769  67.6428938  52.9168940
  74.4462538  66.6536093  52.4212503  63.3683681  64.6967363  39.0412569
  63.5368109  64.1869497  39.8337054  63.2926464  65.5999231  39.3490720
  80.1262093  80.8464718  46.3156319  79.7169542  81.3615704  45.6203508
  79.4015932  80.6036091  46.8919802  44.2711258  75.2991104  58.3614302
  43.8450193  76.0493803  57.9469919  45.2066517  75.4935837  58.3048153
  88.5272598  64.4007492  58.1634760  88.4157944  63.8572311  58.9434767
  87.7552032  64.2142534  57.6292753  60.5828190  81.5865135  23.2312107
  61.4478064  81.9819641  23.3391261  60.0173616  82.0819378  23.8237023
   0.5052328  64.3401003  24.7272658  -0.2265120  64.9291801  24.5435381
   0.2791166  63.5283947  24.2731309  71.7786407 102.7875710  33.6806870
  72.0511723 102.0288658  34.1967535  70.8314896 102.6858044  33.5870147
  81.7357349  62.6438427  55.2242851  81.6034222  63.4597635  54.7415924
  81.1534214  62.7158403  55.9805679  85.3450203  59.8886013  19.2433512
  84.5354652  59.4178152  19.4413745  86.0213470  59.4171810  19.7297502
 101.8869972  73.6368418  57.4568844 102.5281048  74.3088865  57.6883507
 101.6996479  73.7932062  56.5313148  97.1418476  60.4233503  36.3582087
  97.2594929  60.8305836  35.4999804  96.6187191  59.6412420  36.1825180
  76.1552620  65.4841518  34.5128369  76.7469835  65.3822660  35.2583003
  76.5058613  66.2321043  34.0292263  47.2254276  90.3983688  72.2359133
  46.7615747  90.8252811  72.9562044  46.9144583  89.4932652  72.2538137
  99.7604942  72.7114296  53.0768633  99.6848774  71.7601347  53.1513786
  98.9929390  72.9736233  52.5685930  55.1393509  91.8710041  28.7389278
  54.6727657  92.5339031  28.2299161  54.6026564  91.7487144  29.5220208
  11.7896628  90.2970505  46.7538643  11.5326512  89.4875717  46.3123608
  12.7289200  90.3735924  46.5860224  57.9221964  76.6970253  32.6001239
  57.7869081  77.6069450  32.3356104  57.5675344  76.1817217  31.8756151
  81.4846706  68.9605999  71.2230253  81.3351822  69.2602253  70.3263044
  82.1438885  68.2717371  71.1386204  75.1327562  83.6795330  37.0706677
  75.2863741  84.4006729  37.6810646  75.0933886  82.9004574  37.6254058
  32.9999518  80.4794693  24.1507959  32.4148512  80.6324577  23.4088492
  32.6104140  79.7379541  24.6140862  77.3628283  -0.1515970   5.5140752
  77.6469755   0.3306814   4.7376093  77.3394346   0.5060101   6.2092280
  88.9009857  71.9988489  49.9850702  89.6368217  71.9731903  50.5967283
  88.1441975  72.2152090  50.5297613  74.4180059  68.9150667   6.1242807
  73.8843203  68.3166599   5.6014788  73.7902880  69.5379591   6.4906228
  57.5815964  73.0718899  68.0323458  56.7530346  72.8530073  68.4587383
  58.2522249  72.8074360  68.6620712  57.3490143  87.6671696  50.2985477
  57.2004318  86.7623425  50.5732489  58.2941723  87.7225780  50.1577139
  70.1366615  76.7574501  60.9943962  70.6935120  77.1618080  60.3290844
  69.2884064  76.6504478  60.5639887  84.1932011 105.9303856  52.2253466
  84.8246574 106.5454865  52.5983572  83.3481026 106.2135410  52.5744343
  58.1504345  86.9561195  56.7095661  57.4258900  86.3678932  56.4968348
  58.7941456  86.3960838  57.1434212  68.8531303  82.6105499  45.5501699
  69.7037411  83.0364513  45.4438829  69.0651655  81.6997337  45.7543278
  94.6807003   2.0989390  40.5448484  94.0735054   1.3865107  40.7448387
  95.1743984   1.7870602  39.7864175  93.1649971  82.6022243  69.1679049
  93.5871696  81.7465305  69.0917587  93.1694603  82.7888107  70.1067352
  89.0987968  94.5850372  28.8122773  89.0410137  95.3646851  28.2599664
  89.5627785  93.9439201  28.2738328  57.8293133  65.5189371  59.1110182
  57.9116964  65.1213789  58.2441902  58.6238194  66.0434341  59.2104578
  55.8808804  99.6313572  77.9298401  56.5353107  99.3605137  77.2859478
  55.9766817  99.0045643  78.6469126 103.9518452  12.1701896  16.4792597
 103.6157322  11.6651523  17.2196651 104.6390533  11.6186631  16.1053765
  80.2727890  93.0742931  54.4169283  79.8800850  93.8062191  54.8926401
  80.4104614  92.4015236  55.0837564 107.7940941  11.9665194  29.3467736
 108.1168938  12.6987362  28.8215184 108.4064102  11.2534571  29.1655159
  42.7672672 100.7315254  41.3074541  42.6581049 101.3092804  40.5521250
  42.3656797  99.9056911  41.0373354 105.7393837  22.6283216  46.5769482
 105.6131077  23.4070921  46.0349131 104.9390316  22.5671101  47.0984125
  99.4350338  70.1148605  56.1037445  98.9447689  69.9871016  55.2916145
 100.2519512  69.6346855  55.9684324  79.0339708  62.8964663  10.3583491
  79.1591167  62.4402046   9.5262450  78.3896255  63.5770512  10.1637828
  70.0798368  77.1015787  46.0094547  69.5213604  77.2293663  46.7762661
  70.7983589  76.5535593  46.3251066  24.0142035  72.8247833   2.9051167
  24.3851280  71.9433594   2.9467884  23.3511782  72.8385019   3.5953638
  97.4427223  75.0985241  52.8725243  97.5590420  74.5863438  52.0722914
  97.5300884  74.4600916  53.5803413  61.2363863  68.7142467  62.1882057
  60.3819418  68.6227655  61.7665577  61.7768002  68.0353546  61.7841148
  95.9031677  79.0919018  14.5524275  95.0527954  79.0293169  14.9873829
  95.8206367  78.5285950  13.7829435 106.3089657  84.0423107  24.1332316
 106.4843655  84.5625591  24.9173284 106.8823528  83.2805443  24.2180085
  55.1979733  74.5908594  23.9161587  54.4346380  74.0209150  23.8227892
  55.3427315  74.9430990  23.0379772  60.8522749  87.2108555  62.1135855
  61.1961842  87.6806736  61.3538313  60.9075403  86.2870598  61.8690968
  97.4962616  82.4282646  70.1890421  97.2433281  82.8096581  69.3483305
  97.6611423  83.1828308  70.7544470  69.2000675  76.8465996  80.4701805
  69.4968510  77.3291492  79.6986246  69.6368265  77.2775602  81.2048531
  91.0406780   4.9335298   6.4737886  91.7820168   5.3541362   6.9093931
  90.2722549   5.2530402   6.9467193  94.6209908  87.0440197  51.6044807
  94.4163609  87.6800823  50.9190750  95.0705051  87.5541878  52.2782040
   4.8591936  50.0046492  55.6042099   5.0476372  49.2239237  55.0834513
   4.2877281  49.6924162  56.3057613  64.0688705  87.9756355  78.9910603
  64.6185875  88.6323929  79.4185066  63.1830931  88.1675816  79.2989349
 101.6277885  82.2740936  88.1196880 101.8907261  82.8450680  88.8415527
 102.4007416  81.7370892  87.9453087  69.1345024  94.1179848  47.7940655
  69.8578930  94.3627739  48.3711386  69.4187880  94.3948174  46.9229889
  89.0711689  85.6361961  22.2873425  88.3348751  86.1028767  21.8919754
  88.7352753  85.3280830  23.1290531  55.7725477  87.2033691  36.8180847
  55.9905815  86.7709160  35.9924459  55.1007414  86.6457272  37.2104359
  87.9931545  78.2106113  31.4636970  88.7552547  78.4817791  31.9754672
  87.5098610  77.6244402  32.0459914  58.9055634  85.4559994  32.9673910
  59.8128843  85.3902531  33.2651758  58.5881186  84.5529747  32.9653525
  79.3486929  90.9250450  19.1959345  79.9011707  91.5568161  18.7356555
  79.4036293  90.1289654  18.6672747  62.0563793  76.2391329  46.0334253
  62.6585865  76.9265747  45.7488203  61.1963367  76.5358782  45.7359266
  87.8945351  90.3645325  54.0346527  88.2142544  89.6515465  53.4817886
  87.0206451  90.5575085  53.6950922  70.5593586  63.1145239  48.0894756
  71.4995146  63.0249310  48.2454205  70.1537991  62.8606081  48.9184952
  81.6304493  67.2106743  28.7641144  82.3998642  67.2382021  28.1953597
  81.9756126  66.9641829  29.6222138  75.1458025  73.9617109  34.1670680
  75.7870102  73.2560968  34.2518783  74.8969746  73.9494181  33.2428575
  64.5632410  88.2814789  23.9446568  63.7661457  87.7872658  23.7532854
  64.2637205  89.0269566  24.4650292  82.7614975  55.4613781  17.6158404
  83.4265423  55.3988218  16.9302547  83.2571983  55.4290342  18.4340477
  69.9695873  71.8401575  65.3933764  69.9850130  72.2288513  66.2679672
  70.6458950  72.3135805  64.9089050  81.2552547  64.1075134  51.8467855
  80.5539417  63.4711933  51.9863558  81.9781017  63.5925007  51.4883423
  22.4920535  20.1388502  89.9348259  22.3680472  21.0266304  90.2705288
  23.1492496  19.7533154  90.5142117  28.1982613  85.6598854  20.0387645
  28.9107275  85.4550743  20.6443048  28.6069036  85.6421471  19.1733587
  91.7817402  75.6356621  60.1153517  92.5767326  76.1684847  60.0976372
  92.0937634  74.7451878  60.2763700  66.9216681  74.0667725  38.3714342
  67.1417236  74.9813032  38.1941009  67.7682638  73.6331797  38.4786987
  97.6723576 104.3862915  44.6919441  98.1052876 105.0621033  44.1703320
  96.9483376 104.0865612  44.1422272  87.5724506  66.5152597  35.5745459
  88.0573463  66.4452410  34.7522259  88.2106209  66.8575478  36.2004995
  74.4520807  99.3685627  37.2349143  73.6065435  99.4985676  36.8055034
  74.8862267 100.2192783  37.1715164  81.1653328  90.6100464  46.3249588
  81.9851303  90.2071381  46.0389042  80.4835796  90.1124573  45.8734655
   5.0331384  17.0098495  49.6710300   4.6734634  17.8184474  50.0357676
   4.4824380  16.3169503  50.0355148  51.9595432  93.3608055  23.6716938
  52.7606869  93.8261318  23.9122701  52.2205067  92.7941513  22.9457283
  76.3894796  86.9108295  53.9938927  76.6624880  86.3569927  54.7253036
  75.9535742  86.3107872  53.3887815  60.8004522  77.5085497  26.3689280
  60.8646536  78.3562517  25.9290314  60.8472204  76.8668079  25.6602573
  77.5321198  81.5152836  28.4159565  78.4704399  81.5245056  28.2269907
  77.1905279  82.2908115  27.9708767  83.8463879  49.8701000  26.4340353
  83.6503792  49.1764593  25.8042192  83.2604790  50.5869246  26.1909318
  57.3953104  95.9258080  37.4066091  57.7690411  96.7754555  37.1728468
  57.2673512  95.9729290  38.3540463  94.7511292  92.2972012  60.3305483
  94.5723820  92.0155525  59.4333553  94.1508198  91.7803955  60.8679152
  53.8913107  88.2390690  61.3929367  54.7591305  87.8491116  61.2877703
  53.7487411  88.7282276  60.5826092 101.6932392  76.4807796  43.0976820
 102.4562359  75.9702778  43.3687067 101.7688274  77.3013735  43.5846567
  53.4384155  79.1568804  56.6470909  52.9344463  78.3757973  56.4187050
  54.1549397  78.8291550  57.1906185 105.9204197  -0.0451527  86.2049770
 105.9727383   0.7142483  86.7853260 106.8316841  -0.3016753  86.0634613
  58.1238937  75.1577139  21.5464163  58.2571888  75.2761269  22.4868655
  58.1298685  74.2087507  21.4212751  87.5850677  83.9359093  60.3039551
  87.0261383  83.2956409  60.7442808  88.1925678  83.4076023  59.7862148
  70.9275055  37.1415639   8.6293542  70.9891415  37.9205656   9.1821557
  70.0357246  36.8214083   8.7652147  46.1617374  82.5395107  45.4318905
  46.7568064  82.8728867  44.7603416  45.8972025  83.3163929  45.9245443
  95.6575489  65.1415586  22.7806234  95.1991177  64.5266342  23.3532882
  95.0276375  65.3382778  22.0872617  98.6697388  89.4410706  33.3073759
  99.6162415  89.4552422  33.4493613  98.3579254  88.7123489  33.8440084
  74.4847298  72.4748087  71.4637041  74.9606752  72.2140503  70.6752157
  74.8490477  71.9239330  72.1565485 102.2602749  82.3246288  20.8471060
 101.8245411  83.1182575  20.5364323 102.5751781  81.8969154  20.0507808
  82.2274685  83.2608891  49.5968008  83.0100536  83.6762142  49.9591446
  82.4919415  82.3562336  49.4298172  77.7740479  84.7521973  36.4696479
  77.9474545  84.4114399  35.5921221  76.8832064  84.4630146  36.6671586
  92.3641396  14.2479014  31.8885946  92.8568840  15.0622272  31.9901204
  91.8414402  14.3812311  31.0978723  56.4296722 102.2406578  58.1843376
  56.8870163 102.6804161  58.9010572  56.2029696 101.3801861  58.5370779
   2.9019850  64.4275379   8.5701412   2.2874957  63.6984968   8.4856981
   2.8482139  64.6805859   9.4917202  82.3827648  76.7023706  29.3663955
  81.9811535  76.3898897  30.1771331  82.1649647  76.0330105  28.7177372
 105.3830338  75.3614616  30.7858706 105.8309269  75.8816767  30.1187921
 105.1099968  74.5671511  30.3267908  81.0207176  62.0804691  24.4096875
  81.8632030  61.9796896  24.8527431  81.0670090  61.4781332  23.6672044
  88.9914131 100.0043869  41.6873312  89.0788460  99.5708466  42.5362253
  89.6819305  99.6179199  41.1487627  85.3003788  89.7754288  40.2381802
  84.4516659  89.3401241  40.3183460  85.2380943  90.5311203  40.8223677
 112.5174236   3.9682180  31.0150242 111.9685745   4.4436869  31.6386652
 112.6046658   3.0926073  31.3917565  92.5699329  73.3116722  55.8912182
  93.1206322  73.1927967  55.1173782  91.7903042  72.7855349  55.7134867
  55.2574253  52.6841116  28.2860088  55.8320522  53.1302881  27.6639462
  54.3867540  52.7433252  27.8927517  84.3287182  69.6909094  57.1570683
  83.9430714  68.8664818  57.4534225  83.6928368  70.3587246  57.4137926
  65.2166557  92.4047756  91.3173103  65.8342171  92.4676704  92.0459366
  65.7134676  91.9795990  90.6182861  89.5339394  54.1476440  11.8067765
  90.3018093  53.8954353  12.3196137  89.7467899  55.0175476  11.4688420
  61.8024778  97.1759033  67.9467201  62.0184278  98.0928135  67.7767944
  62.5965071  96.6954327  67.7124262  57.8454161  58.4351206  15.4864669
  57.6915216  59.3722820  15.6059635  58.7972641  58.3545828  15.4253912
  64.4340372  59.3476534  49.1077232  63.9944458  59.9401331  49.7176123
  64.5854282  59.8782063  48.3255291 113.7865257  92.4237061  46.3727331
 112.8764534  92.5174427  46.6541767 114.2755795  92.2888470  47.1844435
  68.5695457 100.9155655  57.6116800  69.4611502 101.0839176  57.3068428
  68.0097532 101.2476063  56.9098139  96.4762878  58.8520908  77.6667690
  96.0883045  59.3142891  76.9237566  95.8467388  58.1616449  77.8745651
  42.0407629  62.8822041  69.2018366  42.1897650  63.6461353  69.7590065
  42.7223969  62.9376078  68.5321093  92.9737186  83.1473064  36.0570145
  92.4009895  82.3803997  36.0492253  92.5473309  83.7706566  35.4689074
  44.2471123  68.2457781  72.2394609  43.3080626  68.2781887  72.4221182
  44.6082258  67.6996517  72.9377270   7.7033246  72.7566147  31.4341187
   7.3423445  73.5257626  30.9932852   7.4483722  72.0202732  30.8782101
 101.3013172 103.9283180  71.6636848 100.5971241 103.9425564  72.3118639
 101.3707638 104.8352432  71.3655138  65.0700092  92.6409531  11.7829704
  65.7434940  92.9139519  12.4059653  64.3042469  93.1676292  12.0120108
  73.0279446  87.0309258  21.6398001  73.6005449  86.3863659  21.2239861
  73.5596323  87.8251553  21.6921830  60.7136774 101.1531258  21.4241481
  60.9987831 100.6953049  22.2149324  59.8980522 100.7177639  21.1762428
  77.9408884  78.6278582  47.7507734  77.2464275  78.2186222  48.2669926
  78.7399101  78.1774473  48.0244923  69.1532707  87.4233055  39.7852230
  68.8018131  86.9884968  40.5621719  69.6644402  86.7459774  39.3423200
  69.0458775 104.8870087  42.5103617  69.0765429 105.8095932  42.2571182
  68.3900070 104.5009613  41.9298220  89.8998356  45.3972483  56.7654419
  89.1358757  45.9292221  56.9881582  90.3344822  45.2395916  57.6035643
  76.1020279   0.8916549  46.1232710  76.9599485   0.4729079  46.0536242
  75.5988121   0.3129029  46.6960239  55.5563593  88.8839817  68.0718660
  55.6889534  89.4277191  67.2953415  55.5270958  89.5067501  68.7981844
  65.6847954  60.3710938  14.8016560  66.0683537  61.2243938  14.5991790
  65.5875301  59.9441624  13.9504790  65.9087849  99.0647602  73.2979918
  66.5716934  98.6526585  73.8520288  66.1813259  98.8577080  72.4040794
  96.6470337   6.9004655  66.2314367  96.1775208   6.8988466  67.0655775
  96.5319252   6.0136425  65.8900785  65.9390306  71.4430618  47.4235392
  66.8160486  71.6622257  47.7382517  66.0390520  71.3582993  46.4753628
  62.3561859  66.7852974  51.2945747  62.1205282  66.1342335  50.6336546
  62.1567822  67.6265764  50.8838177 100.4912567  86.3829899  32.8936315
 101.1939049  86.5671444  33.5170102  99.7741985  86.0491467  33.4327197
 103.7339687  59.9610901  50.8310509 104.4665051  59.8400068  51.4351702
 103.7460041  59.1784382  50.2800989  92.2658253  90.3894806  35.5905581
  92.8620529  90.2995968  36.3339686  91.5445709  89.7920799  35.7884002
  92.1382618  10.2836120  80.2653217  92.7549839   9.9640757  80.9239388
  91.2802792  10.2046084  80.6822968  64.5208931 102.1760559  53.8826609
  64.1523266 103.0406666  54.0638781  64.0900898 101.8965626  53.0748749
 111.9632816  36.2736368  45.8515787 112.6559067  35.6255698  45.9800577
 111.1506462  35.7842112  45.9793186  65.4751539  82.7139282  59.4238091
  65.6333351  81.9408131  59.9655724  66.2990284  83.2002735  59.4541264
   0.5250641  14.4748950  42.0436478  -0.1633162  13.8142419  42.1204662
   1.0008411  14.2337513  41.2488413  85.2781868  72.6155472  74.7121286
  86.0689545  72.4975681  75.2384281  84.5691395  72.6660442  75.3531790
  82.3613548  69.0973139  36.1594439  82.2575569  68.1510973  36.0587811
  83.0991173  69.3191147  35.5913329  85.2846432  65.6595850  30.3523183
  85.0451469  66.4797258  30.7838798  85.9033585  65.2445030  30.9532642
  93.9074612  10.0671554  41.8144655  93.9984894   9.3745780  42.4689007
  93.4297180   9.6551490  41.0945749  55.8877182 103.4432125  49.2252684
  56.2971258 102.8461838  49.8515081  56.5166712 104.1584396  49.1298532
  15.4268730  10.6466460  47.5510931  15.7031143  11.5498590  47.7064276
  14.5532250  10.7258880  47.1680880 108.6629391   2.5198671  44.8822021
 108.4525681   1.6423915  44.5628023 108.5934925   2.4511923  45.8344030
  76.3495445  89.8691559  38.6956811  76.6456699  89.0645695  38.2700348
  76.0669041  90.4315758  37.9745436  76.5779686  59.1601706  35.8200431
  77.0082760  58.3307123  35.6125021  75.7057428  59.0807009  35.4338622
  64.7379446  79.9800968  35.5123925  64.6277618  80.8951759  35.2540922
  65.0564623  80.0224209  36.4140511 101.5329647   3.4576967  59.8142004
 100.7764626   4.0406767  59.8779678 101.8412495   3.5629335  58.9141321
  95.8165741  87.6266956  34.8636556  95.6084633  88.3728695  34.3013835
  94.9742317  87.1975040  35.0136018  13.7308025  11.3408804  12.3969972
  14.2460918  10.7976115  12.9932916  14.3826139  11.8302500  11.8951106
  67.4612093  82.5555134  32.0425558  67.4190426  82.3567772  31.1071634
  66.6806936  83.0834961  32.2106576  28.3428788  98.3953285  33.9150715
  27.5010037  97.9692841  34.0761900  28.9837432  97.6861095  33.9653516
  70.2317381   6.4166301  53.1256437  69.4615269   6.9521868  52.9354239
  70.9286451   7.0507336  53.2943535  91.5086746  78.7596178  34.7397518
  92.4352264  78.5338497  34.8220706  91.0536861  78.0976343  35.2603197
  93.6186981  99.2445278  50.7473421  94.2983913  98.7864208  51.2416935
  92.8080750  98.7903881  50.9772778 101.4146519   8.3063853  51.5261698
 100.6238270   8.1902742  52.0528078 101.1627769   8.9371365  50.8516788
  90.2031994  81.6167355  63.9457035  89.4404030  81.9547844  64.4148540
  90.6453133  82.3978329  63.6130428  77.9077101  72.6909208  39.3046474
  77.1901655  72.1792793  39.6782637  77.8305864  73.5501003  39.7194862
  96.3721943  97.9086971  66.0328293  95.4518223  97.6463509  66.0509014
  96.7818737  97.3027992  65.4153490  83.0529022 104.5389748  63.7298298
  83.4529686 105.4024410  63.8328314  83.2159138 104.0984440  64.5638514
  64.5931578 106.1179447  29.2733002  64.7768259 107.0556641  29.2169189
  64.1121483 105.9193707  28.4699178  28.2562947  82.8145123  73.8354158
  28.3612418  83.2717896  73.0010748  27.9899430  83.4974289  74.4509745
  60.3585672  81.4867020  46.4974403  59.5716381  81.0377598  46.1885214
  61.0386705  81.2352085  45.8725882  11.0383070   7.2472805  33.3496547
  11.3562858   7.9568720  33.9078665  11.1298013   7.5842899  32.4584293
  88.2590771  86.0600281  44.0723085  87.3781109  86.4094639  43.9380503
  88.1322956  85.3050995  44.6469736  70.5988836  80.3113842  39.6112609
  69.7965670  80.4751968  39.1155958  70.2942514  80.0372601  40.4762983
  87.8587341  89.5877457  76.0555935  87.7591896  88.8342381  75.4737425
  88.7906933  89.8019028  76.0128212  80.2863121 102.0333576   9.2632407
  81.1621284 102.2420597   9.5882195  80.0682640 101.1999798   9.6805859
   9.2731589  96.2159157  51.9773149   8.6287391  95.5241489  51.8276215
   8.7530154  97.0161819  52.0497847  84.7232437   6.1601621  40.2000809
  85.6023884   5.9098536  40.4841423  84.8656368   6.6742754  39.4053221
  79.6850443  92.4693871  51.8823671  80.0842476  92.7242661  52.7141762
  78.7439203  92.4739552  52.0570135  72.4723196  77.2456169  67.8508997
  71.5318823  77.3223686  67.6899195  72.5388765  77.0203447  68.7788296
   4.2412555   1.4138728  76.4572763   3.8633412   0.6502541  76.0210466
   4.4711572   2.0083044  75.7431173 103.4808159  92.6276684  59.9534035
 102.8020668  93.2518768  60.2101040 102.9973412  91.8562508  59.6577644
   5.1374173  29.2598677  19.6089661   5.9536701  28.7837362  19.4564533
   5.1388258  29.9546790  18.9505839  99.3397713 100.2164173  69.2944336
  98.9175606 100.4824066  70.1112700  99.7504807  99.3764877  69.4995642
 101.7691994   4.2341101  57.1151066 101.9084740   5.1395553  57.3926020
 101.6417313   4.2907378  56.1681223 108.7608910  99.8420238  51.7222309
 108.3296013 100.1682281  50.9324121 109.6102524 100.2833080  51.7309666
 102.7462578  92.5514889  32.3438597 102.0354557  92.6875877  32.9703355
 102.3791981  91.9555473  31.6909051  38.9913583 102.1670818  12.1492672
  38.3471346 102.8153419  12.4338257  39.2054272 102.4203205  11.2513375
  94.0207863  96.4375019  42.1658802  93.5321331  96.3594246  41.3465166
  93.8571739  95.6119823  42.6219273 103.5388088  96.7797756  55.5466223
 103.9905834  97.3443604  56.1738205 102.8260994  97.3211098  55.2071619
  19.6810150   8.1891704  46.7112970  19.5946395   7.9660559  47.6381159
  19.6832991   9.1462207  46.6945410  91.1472702  75.4016352  43.8174248
  90.4754066  75.2468061  43.1534529  90.6555271  75.6122446  44.6111917
  45.0960112  93.5612679  32.1995306  45.7467842  93.0537605  32.6844645
  45.0536537  94.3991089  32.6604581  82.5131321  86.2278366  33.1718040
  81.8989944  86.4391422  32.4686623  82.0248032  86.4014530  33.9765525
  83.2223606  95.7142067  43.3322048  82.4847698  95.5492496  43.9195538
  82.8803444  95.5234146  42.4587870  76.5868902  96.8378639  66.9778585
  76.9583607  95.9614944  66.8768024  75.6573677  96.7286110  66.7771530
  87.9188538 105.6890392  57.0341492  88.5670280 106.3933849  57.0330954
  87.0760918 106.1391830  57.0921755   8.8829458  69.7660589  37.5435114
   8.4650743  70.5971909  37.3180389   8.6501861  69.6220207  38.4607410
  66.8863821  98.1738472  88.9640045  66.2311268  98.0014801  89.6401405
  66.9339418  99.1285801  88.9144039  84.2323399   7.8179765  46.1174297
  84.4078827   7.7802366  45.1772213  85.0259399   8.1980944  46.4941788
  89.8146057 100.6522179  75.4813004  90.6390190 101.1376858  75.4514170
  89.2244339 101.2131691  75.9845448  70.9791136  77.2755003  63.5127211
  70.4625797  77.0233965  62.7472973  71.8847752  77.0959091  63.2602215
  88.6382580 101.7603874  58.2772684  88.7316895 102.4538898  58.9303827
  87.6930428 101.6321373  58.1976366  95.1164722  68.6221075  12.1045542
  95.4041958  68.5865164  13.0167961  94.2668819  69.0617514  12.1383488
  61.1377239  79.6662521  50.8195066  61.6549873  80.4656887  50.9172869
  61.7193556  79.0590954  50.3620148   3.5091013  22.9877663  41.4298534
   3.4280312  22.6544881  42.3234892   2.7020413  22.7100778  40.9965277
  74.1702127  94.7818565  53.4006882  74.1718435  95.6877041  53.7099886
  74.2632437  94.8529720  52.4506807  59.8861790  72.4168682  58.2202482
  60.5998039  72.8034639  57.7127934  59.7650623  71.5471888  57.8391600
 104.0469646 101.8121624  32.7253723 103.6531258 101.0964394  33.2242322
 104.9329758 101.8913269  33.0788708  80.6893635 100.3223991  71.3104963
  80.3110218 100.0523853  72.1472692  81.4788342 100.8077526  71.5500784
 101.8403530  60.9716368   7.0312470 100.9058285  60.8774424   6.8468022
 102.2422504  60.2000952   6.6319531  96.5085030  77.0186424  34.1998243
  96.3736343  76.2857056  33.5991240  96.9445419  77.6857328  33.6696386
   0.3779133  99.9263000  59.4335032   0.5545927 100.3558540  58.5965395
  -0.5272491 100.1617336  59.6371746  65.3835344  80.1468372  38.3045197
  65.3847408  79.2476654  38.6327195  65.1496601  80.6790543  39.0649652
  79.8903036  97.5908375  30.7733083  80.6515408  97.2352028  30.3147602
  79.4967508  96.8337631  31.2071061  61.1154413 102.9395580  32.8371334
  61.5896416 102.9472446  32.0056820  60.2021074 102.7936649  32.5906205
  66.5139484  81.0693455  51.5194511  66.4113045  82.0157242  51.6198254
  65.8909464  80.6935596  52.1414471  88.2168674   9.6695310  37.2037005
  88.5255432   8.8046527  37.4737692  87.3481846   9.7477078  37.5980330
  63.5460424  93.0532932  24.6781540  63.6499405  93.5458088  23.8639879
  64.4306517  92.7582550  24.8941541 101.0184097 102.4893570  37.6110125
 100.8656979 102.0809460  38.4631371 101.6948223 103.1457710  37.7777934
   3.8190359 104.8878098  60.4398060   3.5013807 104.5201111  61.2645054
   4.1547900 104.1338539  59.9549818  59.4200611  96.5794373  49.1134119
  59.7417927  97.0661449  48.3545732  60.1726913  96.0645390  49.4043827
  91.8766117 100.1937199  23.9028287  92.4876785 100.4552746  24.5916128
  91.0724926  99.9664211  24.3696833  76.3461161  87.6291180  21.4127731
  76.6312075  86.9987202  22.0742536  76.0001087  88.3654690  21.9170594
 107.1419048  87.7274227  14.3557787 107.7482510  88.1655502  13.7586045
 106.3060665  88.1731033  14.2179883  69.2298651  97.0033455  63.8862324
  69.5222235  96.3957882  64.5656633  68.7545824  96.4544582  63.2624912
  85.5081558  17.9956806  43.5027361  85.1128101  17.1846735  43.1830502
  86.4476681  17.8133869  43.5204601  18.4751427  45.8388567  76.3758612
  18.1775928  46.7411184  76.2591553  17.6697326  45.3332901  76.4851618
  89.8039055  91.5168381  52.2140455  89.1817284  91.0304451  52.7549267
  90.3409290  90.8411026  51.8002605  69.4280672  83.1610680  15.5868328
  68.6244249  82.6906872  15.3651893  69.1637373  84.0800667  15.6292510
 106.9512844  81.8273640  66.3578415 106.9647408  81.6417408  67.2967768
 106.1700344  81.3776207  66.0359526 103.8101673   4.0204239  40.7736921
 103.9447212   3.5954824  39.9266076 103.3403015   3.3702099  41.2958860
 104.7405434   6.5213144  45.1842546 104.8999214   6.1435479  44.3193102
 103.7987041   6.6912174  45.2015638  19.0373552 107.2596169  75.8485317
  19.1701353 106.3194084  75.9694004  19.1954279 107.4058819  74.9158716
  67.2978306 103.0828381  73.1629515  67.1822023 103.9539623  73.5424185
  67.6649570 103.2467747  72.2942924  59.4506931  74.7179365   0.9788878
  60.1534986  74.1302490   1.2562215  59.0002155  74.2405462   0.2821787
  81.6149807  79.2163849  28.1494761  81.8474770  78.3835316  28.5599995
  82.4555588  79.6360636  27.9663658  -0.0355387   2.0777752  16.0280693
  -0.6738997   1.5229288  16.4762509   0.7781744   1.5742600  16.0521877
 109.0161037   5.5703974  48.6051655 108.4542656   5.2338797  47.9070759
 109.2695808   6.4443743  48.3082676  82.0489693  82.4599743  31.4265466
  82.9259014  82.5681877  31.7946839  81.9119835  83.2467270  30.8988309
  55.6025696  89.4128418  22.5874710  55.5624771  90.3660774  22.5102258
  55.1979780  89.0900707  21.7822671  82.6449490  78.4753323  21.0558248
  82.6190853  79.3516111  20.6715083  82.1158600  78.5465384  21.8503237
  89.6390343  90.1147747  40.6588459  89.5805550  90.7529449  41.3698673
  89.3410969  90.5914402  39.8840809  40.5000067  90.7497978  30.5218482
  39.6127439  90.8574009  30.1791835  41.0324812  90.5543995  29.7507954
  40.2851439  16.4247882   2.8418949  40.6370306  16.0609233   3.6543053
  40.7774353  15.9843051   2.1491805  88.0945969  71.5442848  34.0561533
  87.1517467  71.7041302  34.0975833  88.1719112  70.6568623  33.7058187
  75.9280634  72.1408606  43.5135984  75.4126549  71.8033409  42.7810192
  75.2761555  72.4239731  44.1547632  86.7838478  93.6077213  48.0196667
  87.0673656  94.0640259  47.2274303  87.5978279  93.3754349  48.4665585
  91.3012314  70.3592873  66.5875959  91.7243671  69.7694683  65.9636593
  91.6071987  70.0613070  67.4442291  70.4944897  78.5461426  58.8595724
  69.7199678  79.0170240  58.5519743  71.1415339  79.2317915  59.0252590
 105.6698036  89.4919395  35.6211209 106.0007381  90.2576160  35.1515913
 106.3764000  89.2556286  36.2220478  81.8534374  77.9191446  36.2301159
  82.5504017  77.2652197  36.1766291  81.1977863  77.5239372  36.8047118
   3.6288720  72.1653938  56.3540792   2.7741930  72.5937319  56.4018583
   3.6014986  71.6666222  55.5375576  51.2214613  33.9241672  70.7640362
  51.1081743  34.8588657  70.5915928  50.5027771  33.7009096  71.3555431
   5.5107850  37.6574993  23.8368583   5.2062476  36.8118477  23.5076737
   6.4652073  37.6042652  23.7871027  94.6086979  63.0264807  45.8585882
  95.2226639  63.6833286  45.5302095  93.9440155  63.5324097  46.3259888
  81.8578148  19.0572417  39.3430305  81.1436653  19.5494890  38.9381742
  81.7139149  19.1567326  40.2841091 104.6870422  18.7209868  20.9548640
 104.6559620  18.0728686  21.6585755 105.5712128  19.0845227  21.0029459
 110.7366085  38.1375527  37.9884577 111.4350414  38.3226967  37.3606491
 110.1045322  37.6138902  37.4960256  93.9201546  89.6933651  68.6518860
  92.9642773  89.6447849  68.6650324  94.1270828  90.4781342  69.1593885
  79.5641994  77.6798248  51.5750885  79.4559002  77.1097994  52.3363924
  79.9781561  77.1228552  50.9158039  91.2884140   7.7987278  30.0231075
  91.8671036   8.2952529  30.6017375  91.1449432   8.3771336  29.2740440
  12.2746015  27.0032930  56.6853094  13.1407642  27.4033976  56.7621946
  12.4411154  26.0616446  56.7278147  60.5369282  99.7676373  50.8372927
  60.2310324  99.7429943  51.7439651  60.4199886  98.8719368  50.5206347
  61.5103388  80.9326935  41.4537525  60.9649849  81.6193390  41.8376017
  61.6999817  81.2441635  40.5687380 104.7204018  82.3277473  46.2448025
 104.1318226  82.3867512  46.9973516 105.0720978  81.4384079  46.2849569
  60.1014090 101.7043209  48.5858250  59.9215603 101.1705589  47.8118849
  60.5229616 101.1024189  49.1992044  57.7607584  53.3672810  20.2135086
  57.3250389  53.1910467  19.3796480  58.4942532  52.7526617  20.2350736
 102.7848053   4.2927635  30.1763964 101.8805313   4.4991145  29.9398756
 103.2995415   4.5677871  29.4176865  28.9795947  61.4799356  73.0790234
  28.6450815  60.6711340  72.6914978  28.4532237  62.1724796  72.6795912
  86.9227028 104.9152660  53.4864950  86.2772846 104.6192741  54.1284084
  86.6043282 105.7728386  53.2046556 105.1430130  59.6995640  65.0891066
 105.0941467  59.0980577  65.8320951 106.0797310  59.8546267  64.9676895
  44.0548468 104.1825199  34.5444846  43.2563782 103.9691639  34.0616155
  43.7709570 104.2576218  35.4555273   7.1407008  88.5853100  55.0363207
   7.4020630  89.2098331  54.3596411   6.9714409  87.7726364  54.5597172
   8.3213103  22.7753234  41.5141726   7.4178308  22.4623680  41.5590620
   8.2987124  23.4803081  40.8670855  86.6389179  11.5307128  20.9789968
  86.5448856  10.9281802  20.2412009  87.4029636  11.2073791  21.4564061
  61.9007111  91.8560696  62.3179293  61.9051552  91.0114288  62.7682495
  61.6643381  92.4881744  62.9967546  81.0059357  76.3558435  70.3825808
  81.8170834  76.2646151  70.8825302  81.1497974  77.1247292  69.8309040
  93.5678959  97.2125244  15.6564295  94.2097473  97.6446533  16.2199223
  92.7941608  97.1089268  16.2103510  94.6500874  64.3438911  58.0009604
  94.7332478  63.4165478  58.2231188  95.3205776  64.7776699  58.5286951
  85.3212166  93.6813068  61.2012768  85.6519222  94.0989494  61.9965363
  85.3893471  92.7429295  61.3774633   5.0465697  80.5101871  13.7964916
   5.7662761  79.9836493  13.4486222   5.4042578  81.3961411  13.8545644
 105.2360344  10.6503963   6.7331707 105.7495022  10.7084465   7.5389069
 104.4685459  11.1980557   6.8982750  20.9005332  11.1231148  38.6654043
  20.7608056  10.4373300  38.0124044  20.0646067  11.5875244  38.7076330
  88.6481285  24.6042871  67.3608971  88.1153965  24.8286605  66.5979528
  89.0375996  25.4350066  67.6337481  41.2648582  56.9298410  12.8409803
  40.8373928  56.0845947  12.7029049  41.9892645  56.7374659  13.4363425
  88.8030720 105.5363274  61.9892359  87.8696442 105.7432175  61.9430113
  88.8315392 104.6109009  62.2321415  34.8090696   7.2118956  13.0400836
  34.1987014   7.0329159  13.7553799  34.4687581   6.7055637  12.3024881
  63.2392263  77.4440479  56.1905336  62.3774529  77.0615482  56.0253811
  63.3866358  77.3072386  57.1263647   8.7431139  88.8560867  61.0126543
   9.1781336  88.0641174  61.3285065   8.7215477  88.7542439  60.0611305
 102.3157310  78.1932831  29.2454457 102.3951530  78.9460659  28.6595750
 102.3733139  77.4326420  28.6672258 106.5344906   5.8761209  72.5630951
 105.8245564   6.3782358  72.1629620 106.6674328   6.2879020  73.4169054
 100.6947517  26.9851208  56.1556196  99.9347973  27.5608945  56.0707998
 100.8824921  26.9729924  57.0941496 100.4637718  10.9238791  65.6341028
  99.7334099  10.3078163  65.5768204 100.5563259  11.2688601  64.7460413
 100.5467319  13.3160341  17.8286982 100.2655792  12.8107846  18.5915267
 101.2727165  13.8508165  18.1499362  42.2500753 106.7568207  33.6370802
  42.4719858 106.2541008  34.4208264  42.8109884 107.5311279  33.6824107
  74.4870377  73.9976501  45.0033426  74.7007561  74.2728901  44.1118288
  75.1909161  74.3602800  45.5411911 102.4578476  72.7947378  52.0333862
 102.3102093  73.0247068  51.1160278 101.6003513  72.8956223  52.4465990
  90.3003025  81.5831375  49.3229580  90.0881004  82.5105762  49.4280338
  90.0144958  81.1777878  50.1416397  89.4097614  96.6985035  23.2503653
  89.8389244  96.0800362  23.8415837  90.1261520  97.2193050  22.8873563
  52.2298861  88.1041718  42.6014900  51.9568968  88.1012154  43.5189295
  51.5944719  87.5400925  42.1607065   4.7660911 101.1444187  25.6847906
   5.3577983 100.3935242  25.6369996   5.2723098 101.8716812  25.3227735
  10.9302616  11.5929008  12.6312220  10.7378232  10.7147872  12.9600322
  11.8751681  11.5896595  12.4783373  47.4957371  30.9064555  66.4329338
  48.3225012  31.0526609  65.9732485  47.4937153  29.9697876  66.6301203
  88.8331890  83.4939003  24.2722845  89.7863388  83.5593891  24.3309999
  88.5140705  84.3272972  24.6184731  41.6001272 101.3612461  19.0564334
  41.3502932 100.4417801  18.9648008  42.4469137 101.4245319  18.6146355
 110.4515457  29.0551901  49.2164564 110.1863861  28.5531688  49.9871063
 109.6773720  29.0566158  48.6535311 106.6300678  78.9516449  49.9836779
 106.7016983  79.9038315  50.0503349 107.0233727  78.6246443  50.7927608
  63.4986496 101.7821026  38.8030362  64.3667269 101.4932632  39.0845418
  63.1707287 101.0634422  38.2624507  90.3648949  13.8248086  35.5634308
  89.5237446  13.3836889  35.6822228  90.4833603  14.3344903  36.3649440
 105.9707737   0.3721535  65.2720499 106.2934017   0.1845842  64.3905926
 105.4010010   1.1333293  65.1616192 105.8631611  94.8219109  70.3283072
 106.0299683  95.6445885  69.8682976 105.1027966  94.4482899  69.8827982
  73.2923985  70.4578876   0.9196803  73.3851957  70.5534649  -0.0282045
  74.1288090  70.7598686   1.2738802  36.2487698  82.8736496  30.1160288
  36.0220027  83.6070919  30.6877637  36.8674874  82.3530579  30.6282759
  71.9722843  91.1347961  64.8647213  71.1794472  91.1919308  65.3979874
  71.9746447  91.9429111  64.3517256  77.3941708  94.1152954  35.1812744
  77.0740509  94.8518467  34.6604490  77.2108841  94.3648434  36.0870147
  83.7666130 102.8933620  66.1639643  83.1351757 102.9259300  66.8826151
  84.6148777 103.0362606  66.5837955  92.0740509  63.4705162  54.4675207
  91.2009621  63.7629366  54.2059088  91.9306278  62.9851580  55.2799797
  74.3174458  85.4517746  63.1668711  73.3670616  85.5616474  63.1362486
  74.4793463  84.9957561  63.9927435 109.8770428  97.7258015  76.8832397
 109.8518753  98.0853653  75.9964943 110.7071018  98.0369377  77.2443819
 101.2257862  92.1878815  47.3128223 101.4157867  91.2500858  47.3387814
 101.0902786  92.3792076  46.3847780  91.5483189  70.9275341  10.4224598
  91.0498047  71.1676979  11.2035072  92.3175144  71.4968014  10.4448426
  61.4772844  87.0618153  85.9125805  61.5602207  86.9119072  84.9708366
  62.3373270  86.8369865  86.2675571  24.8103833  77.4382162  11.6252244
  24.9641323  78.1394148  12.2584057  23.9802217  77.0472717  11.8976653
  89.9231625  79.0353394  65.4045630  90.0051975  79.7935438  64.8260927
  89.1617584  79.2317677  65.9503651  61.4972210  19.7064459  79.2104864
  61.0692596  20.5491328  79.0589666  62.4251461  19.8764944  79.0483952
  87.8746128   1.1142359  65.5690002  88.1432629   1.8605492  66.1047935
  87.8005314   1.4695808  64.6832943 102.2097206  77.8477621  40.7143450
 102.0170498  77.4138927  41.5455294 101.9065475  77.2322226  40.0469398
  97.8742599   9.6239924  49.9687815  97.3060322   8.8794470  49.7712898
  98.0533695   9.5466447  50.9058905  79.7961807  86.3756466  17.5809324
  80.4021263  87.0882225  17.7841461  79.3444014  86.6642380  16.7879355
  99.0885735 100.3253555   6.5739137  98.2206726 100.6068707   6.8632996
  99.0008545 100.2136135   5.6273144  68.1539679  77.5545073  71.6000319
  68.7822008  78.0618286  72.1140194  68.4263802  76.6446447  71.7190886
  22.1095967   4.1007429  78.6161327  23.0417776   3.9800340  78.4353065
  21.7062926   3.2718509  78.3582211  99.6576881  73.0287123  48.7681818
 100.3662682  72.5750923  49.2246723  99.9428368  73.9416790  48.7305593
 107.7895355  41.7655563  25.9315395 108.2430649  42.4638462  25.4593897
 106.9828606  41.6258240  25.4355741  60.3810072  89.3124962  35.4073477
  59.5991516  88.7749577  35.2809000  60.5925131  89.2130089  36.3355732
 108.2703876 100.3660107  37.1958113 108.4830379 101.2808704  37.0112944
 108.9801407 100.0648499  37.7630687  93.9289951  80.0289822  26.2783170
  94.0532780  80.8571529  26.7419171  94.7208118  79.9291468  25.7498503
  11.2610579  40.4283047  34.5559692  11.3632882  40.4252911  35.5076909
  10.3598845  40.7174730  34.4127941 108.4317684  94.3390656  34.7452188
 107.9909611  94.3770409  35.5940294 107.7511883  94.0564728  34.1343284
  67.1495485  79.3157625  45.7892179  68.0835581  79.3814659  45.5903578
  67.0829773  78.5672283  46.3820934   0.9922669   2.8979242  44.7658062
   1.8185735   2.5128445  44.4739819   0.7175145   3.4554076  44.0378284
  85.5000591  79.0358543  61.8263721  85.3369808  78.4113741  62.5332355
  86.4292812  78.9297152  61.6226387 103.2265377  85.7248211  30.5236173
 102.8625774  86.5003204  30.0965762 103.6040878  85.2126122  29.8085403
 101.1043453  89.6399021  45.3014612 100.8372593  88.8739872  45.8096600
 100.8117294  89.4498539  44.4101191  76.6377878  94.1952515  18.3025384
  75.7063293  94.4145393  18.3253515  76.7026043  93.3743191  18.7905037
  84.2930412 105.9879017  43.6876583  84.2762852 105.5588531  42.8321648
  84.2331409 105.2693367  44.3171883  79.8517895  15.1633883  65.6275988
  79.6359253  16.0188997  65.9987211  79.0053320  14.7312105  65.5137491
  70.3306198  95.5415535  45.4171753  69.6167040  95.1814651  44.8909664
  71.1260223  95.2088928  45.0013590  41.3256693  16.4381790  81.3289928
  41.7712545  17.2415185  81.5979385  41.7276812  16.2104654  80.4906845
 110.6696510  10.9682405  68.7376690 110.5685902  11.8647027  68.4177113
 111.5654373  10.9332359  69.0731859  72.1498346  61.9112062  60.5224848
  71.8698263  61.5611839  61.3682461  71.4778376  61.6174650  59.9073696
 107.1890640  10.8425891  61.9899559 107.2428608  10.6393898  61.0561180
 107.3003292  11.7922223  62.0352316   5.0624436   9.6436369  83.8511467
   4.3532401  10.2120924  84.1513538   5.8244419   9.9229914  84.3586445
  94.8240852  89.8001671  33.7044048  94.0961552  90.0372410  34.2789865
  95.1283169  90.6342602  33.3466864  99.6714973  58.8683414  67.0381355
  98.9924049  59.4834328  66.7611504  99.9151230  59.1601801  67.9166079
 113.6774905   7.3471314  89.0526009 112.9364707   7.6567113  88.5317612
 113.9275768   6.5182805  88.6443233  79.0311241 102.1506214  34.8249745
  78.7673569 102.2478294  35.7399678  79.7853422 102.7323246  34.7300339
  16.2728918  22.5740075  24.0202332  16.1743438  23.4491348  23.6451674
  16.1715901  22.7046990  24.9630427  17.2425508   3.4578079  52.1271372
  16.8042779   4.2387933  52.4650860  16.5408933   2.8148395  52.0246649
  37.3460221   7.4939656  69.0454054  37.0262742   8.1024212  68.3792448
  37.3167729   7.9945093  69.8607779  91.8669510   8.0792022   6.7387944
  91.7569542   7.5647986   7.5384951  91.7190075   7.4537629   6.0294497
  95.7256413  78.8451815  88.3193111  95.3545856  79.5175123  87.7478981
  95.3424931  79.0227842  89.1783142  96.1345959   3.4029305  67.4311352
  96.7585564   3.2391474  68.1383038  95.4110336   3.8665509  67.8527355
  99.8223877  58.4386015  55.4004574 100.6389713  58.2010078  54.9611664
 100.0858307  59.0684080  56.0714102   3.6095917   9.4663972  10.2398396
   3.4562957   9.4170278   9.2962849   3.8652220  10.3759098  10.3936958
  31.2361383  15.0603235  43.0689573  32.0704269  14.6934354  43.3615112
  31.4807892  15.7457650  42.4472284  93.1458378  95.7822800  74.0178919
  93.8440132  95.7850075  74.6727085  93.0478382  96.7011833  73.7684298
  69.6136475 100.4785824  81.6235733  69.6820211  99.7063255  82.1849823
  68.8322210 100.3210449  81.0936832   0.8106195  93.4920788  32.5675011
   0.1044212  93.4995651  33.2136130   1.1473447  92.5963783  32.5910902
  47.1633625  28.6818790  48.7365198  47.4089289  28.4097219  47.8522921
  46.3302803  28.2399201  48.9004707  24.8499680  18.2113743  62.2003365
  25.7200742  18.2390356  62.5983095  24.8801827  18.8758576  61.5120220
 105.0106430  45.0775862  47.4209785 104.0547752  45.0770283  47.4714994
 105.2923393  45.5269575  48.2178116  88.9294434  64.4201183  88.5994053
  88.8302803  63.4681034  88.5911369  89.4515228  64.5997620  89.3813229
  15.6945324  16.4179325  25.9282351  16.4690125  16.3136721  25.3754759
  15.1611912  17.0693886  25.4728413  26.0384202  24.9950767  79.2309427
  25.6052732  25.0696492  78.3806181  25.4582334  24.4353533  79.7470093
  26.1691999  26.2201953  26.3156605  25.5424714  26.7664099  25.8412194
  25.7141590  25.3874993  26.4413142  28.5973763  11.9355452  50.7714748
  28.9652681  12.8045940  50.9316063  28.7966561  11.7567158  49.8524857
  28.2721806  20.0772119  40.3867817  28.6483932  20.7161498  40.9921360
  27.9045773  19.3985081  40.9528732  83.9092445  75.8549547  61.7086649
  84.0165997  76.5943718  62.3069715  83.1625938  75.3694725  62.0594358
  93.2072639  53.0109406  69.8747540  93.5101318  53.6537266  69.2334080
  93.9728737  52.4617052  70.0433016  84.9846268  90.9792328  66.1431170
  85.6648827  90.7107544  65.5255365  84.2157364  90.4687023  65.8893585
  21.3012385  48.7033606  41.2916517  20.4554510  48.2968378  41.1029339
  21.8744993  48.4017706  40.5869198  96.8890953  53.7531805  39.1471767
  95.9993744  53.8574362  38.8098955  97.4450302  53.7790871  38.3683991
  29.0844989   2.9743132  47.3914337  29.5612788   2.3082697  46.8961525
  29.5902085   3.7766689  47.2621489 111.6998959  90.4194736  38.8954854
 111.3887691  90.2642536  38.0036688 110.9115696  90.3701305  39.4361687
  97.4860382  83.3113861  74.6833944  97.3456764  84.1695213  74.2832279
  98.1357956  83.4698296  75.3681850  99.0362644  82.4472618  47.1343756
  98.5163784  83.1881809  46.8229246  98.5596561  81.6752148  46.8293953
  95.8158207  92.4016857  47.6314449  96.6756153  91.9955921  47.5215721
  95.5444336  92.1526051  48.5149240   8.1524509  20.9368682  39.3783879
   7.9851389  21.3002753  40.2479696   8.5143548  21.6686082  38.8785744
 112.9488564 106.0655975  36.9427609 112.9277611 106.7634010  36.2878895
 112.5580311 105.3113079  36.5017033  64.2787743  89.0273666  71.3870239
  63.9508057  89.0611076  72.2856522  63.7894249  88.3123684  70.9801579
  99.7776699 100.9637165  60.4854441 100.3102684 100.5666161  61.1745644
  98.8830376 100.6883526  60.6855297  94.6714115 106.6389751  48.7683058
  94.7505283 107.3452282  49.4095373  94.5299625 105.8521843  49.2947912
 112.7603436  93.3244133  55.7487488 113.0554581  93.6193752  54.8872757
 113.5213280  93.4447575  56.3167715  48.8773966  29.9635553  37.9805684
  49.4041872  29.6641564  38.7215734  48.4165668  29.1795135  37.6820016
   1.2702708  87.7106762  31.8395853   0.8482853  86.9380856  31.4637232
   2.1961887  87.4744892  31.8954849 110.3579330  15.2651107  43.3386517
 109.4212627  15.4377508  43.2433844 110.5175495  15.3229773  44.2806768
  37.4438572   0.1171374  34.2426348  37.6590228   1.0374568  34.3941164
  37.2096848   0.0753870  33.3154607  95.5292416  73.8512135  68.5505533
  96.3547993  74.1003609  68.9660120  94.9825191  74.6342230  68.6155653
  25.0316811  18.9098334  66.7833376  25.0136495  19.8614526  66.8849659
  24.9738669  18.7687397  65.8383608  41.0204840 101.6083050  21.8491292
  40.8074284 102.5407505  21.8864036  40.9114027 101.3743591  20.9273934
  98.2680130  92.3579788  34.7711444  98.8700676  92.8271961  35.3487110
  98.8085079  91.6848469  34.3576336  80.9850121  83.1019306  58.7152576
  81.6665173  83.3613586  58.0951929  80.4535580  82.4668598  58.2351732
   9.4830656  11.9932973  65.6576681   8.7464803  11.4756727  65.3324938
   9.7767770  11.5267015  66.4401388  92.3405743  86.5890980  65.4957628
  92.8944206  85.8988667  65.1309776  92.9570484  87.2553730  65.7995081
  94.6618366  89.1840839  56.7602921  95.1008320  89.8806858  56.2721682
  94.6502495  89.4962788  57.6650715 101.2597370  92.4298668  42.2602224
 100.6169891  92.8303337  42.8456545 101.9557095  92.1240807  42.8419018
  91.1315346  82.0127773  39.0454984  90.5520058  81.2570381  38.9493799
  90.5938435  82.7613258  38.7870407  10.9384155  13.4041417  26.7314696
  11.4762974  13.3047247  27.5169826  10.3980684  14.1744721  26.9071078
  87.3922729  91.5342522  50.0990486  88.2973385  91.5280342  50.4105759
  87.0298767  92.3551083  50.4323673 104.2216301  16.9588625  60.9990358
 104.1227722  16.0693347  60.6596279 103.4705734  17.0782614  61.5803242
  67.6484489  81.2299347  14.9396014  66.7889643  81.0116291  14.5792305
  68.2582712  80.6675625  14.4620180   6.2707120  23.8858342  60.3621626
   6.3124156  22.9392385  60.2263212   7.0068026  24.0770483  60.9433985
  91.2444782  82.0581245  55.6147766  91.0907459  82.7333164  56.2756205
  91.5464687  81.2990665  56.1136436  83.1919003  98.6604977  57.2022343
  82.9061413  99.5420074  57.4420309  83.4731388  98.2669067  58.0282068
  99.8387623  76.3757849  37.7229595  99.3787956  76.2346172  38.5504460
  99.1423225  76.5356731  37.0860600  19.8664129   3.7076527  58.8770533
  20.0627112   4.6392733  58.9759541  19.5950246   3.6157051  57.9637480
  52.4074078  95.8506012  56.2100029  51.7762804  96.5586567  56.3387108
  51.8781948  95.1080036  55.9189463  81.5977478  90.1920891  90.5868244
  80.8628082  90.6391144  91.0066700  82.2795296  90.1694584  91.2583065
  48.2593060 105.8868217  60.2450657  48.0558252 105.3955269  61.0409641
  48.2916451 106.8003178  60.5291748   8.1756049   2.2726287  50.5196619
   8.3125508   3.2144165  50.4171324   9.0379566   1.9292602  50.7535028
  13.6816454  59.2728472  72.5268316  12.8955245  59.1714478  73.0634546
  13.5257816  60.0710917  72.0221090  64.1697788 103.8342190  72.3577738
  65.0830698 103.5767078  72.2319937  63.6637878 103.1009769  72.0077038
   4.2902449  12.9638112  64.2675447   3.6638227  12.2731018  64.4837570
   3.8518822  13.7743640  64.5265341  99.7591153 107.1608719  61.8880844
  99.3881026 106.3771636  62.2935247  99.2928854 107.2437720  61.0562229
  10.4079318   4.4307327  65.0747538  10.7576632   3.7819567  64.4640112
  10.7556939   5.2659154  64.7620869  52.9755259  85.0332928  32.4656653
  53.3559322  85.8660126  32.1861959  52.1615076  85.2776241  32.9060125
  89.4359207  46.1224842  10.8574343  89.1267395  45.4448128  10.2562654
  89.7153091  46.8389416  10.2874720 102.3254967 100.0820446  81.0630417
 101.8321609 100.8995342  81.1306190 103.1741810 100.3433037  80.7056713
  99.0924454  83.2529354  50.6107998  98.9561081  83.7093639  51.4410591
  98.2336807  83.2630062  50.1881218  61.9449902  91.5292168  34.5942998
  61.3913727  90.9725380  35.1418734  61.4609766  91.6144466  33.7729001
  10.5024004 100.1213264   6.9925165  11.0470831  99.3687248   7.2230411
  10.9560919 100.8718109   7.3761463  97.5879860  77.3919487  51.2846422
  98.4726238  77.2560740  50.9452438  97.6020336  76.9951439  52.1556091
   3.2455060  10.6863093  48.6966705   3.4126675   9.9517858  48.1061077
   2.7422026  11.3072824  48.1700706  99.3176460  84.3410492  44.2197275
  99.4736671  84.3185425  43.2755947  98.7573242  83.5834503  44.3880177
  12.9900885   8.2316059  16.1041915  13.6407888   8.7725806  15.6567919
  13.1979668   7.3364097  15.8365309  87.5553513  78.4063244  81.6157532
  87.2948742  79.2448711  81.9968414  88.5123062  78.4267473  81.6233158
 103.4305191  99.9905968  34.8096180 103.6630344 100.7027912  35.4053855
 103.2358074  99.2508888  35.3850698  87.5522423  52.3688078  45.6495619
  87.5115299  52.0595312  44.7446156  88.4138775  52.7790403  45.7239342
  74.1065598 106.6188526  34.0852380  74.0079641 106.2756157  33.1971502
  74.9921513 106.3636208  34.3437195  73.5589600  51.9153023  86.9286919
  72.7573490  52.1316004  86.4523888  74.2229795  52.4951982  86.5558243
   2.1438669  16.9808662  66.2846708   2.6264060  17.6964009  65.8706665
   1.8059872  17.3582458  67.0968628 102.9880238  87.1550751  59.7799587
 102.6408958  87.8923035  60.2821779 102.2149754  86.6454506  59.5372343
  96.8874931 102.6183605  56.3779068  96.7226219 103.4685516  55.9702063
  97.8416348 102.5473595  56.4063168 109.2601109  39.6039176  47.5312710
 108.4548283  40.1211405  47.5157642 109.0031052  38.7724924  47.9299116
 109.2285919  71.1611032  54.8292542 109.1111946  72.1051121  54.9355173
 108.5647488  70.9078836  54.1878414  30.5480123  93.0842590  56.6395760
  30.0317168  92.7668667  57.3804760  31.0021591  92.3072052  56.3137293
  90.9182453  88.8362885   3.2660449  90.1282787  89.2841053   3.5687673
  91.1511993  89.2848015   2.4531469  74.1350460  94.8366165  18.3667254
  73.4708691  94.1476536  18.3458245  73.6958599  95.6038952  17.9998136
  32.1126986   7.4842697  31.0584998  32.7595139   8.1070590  30.7268453
  31.2758136   7.9415435  30.9762931  74.9941826  77.3537683  66.4309025
  75.5052519  78.0390358  66.8615389  74.1739273  77.3215771  66.9232178
  48.5904217  29.8660922  46.1682272  49.3607044  29.3440866  46.3927412
  47.9684305  29.2331433  45.8094358  36.4976978  10.1353478  71.3768196
  35.7884884   9.6122926  71.0030985  36.7251372  10.7583904  70.6866550
   8.9704949  67.5253105  35.9263802   8.7988997  68.2181215  36.5641928
   9.7978419  67.7770519  35.5160713  10.2336633 105.4976177  49.3633270
  10.3483462 106.4111805  49.1016245   9.7024697 105.1135349  48.6658049
  49.6743107  91.2950706  79.4416475  50.3837109  90.8060265  79.0247393
  49.0867281  91.5251255  78.7218857  49.6770763  54.9623013  91.4752388
  50.4258156  54.5042610  91.0933685  49.9891758  55.8562994  91.6152191
  18.1431425   6.0621679  61.4829636  17.4952614   6.0660893  60.7783604
  17.6394653   5.8557469  62.2703218 109.9665833  58.5799170  36.6396689
 110.1993561  59.2940664  37.2330022 109.1811752  58.8896322  36.1886191
 107.4396896   7.6537859  61.2517166 107.2379017   7.1302342  60.4762125
 107.1076393   7.1346980  61.9841862  41.8067694  84.2754173  88.0287838
  41.9860601  84.6849728  87.1824074  42.4361753  84.6774292  88.6275101
  43.3224583  28.9724755  47.2180700  42.9452419  28.8414168  46.3481522
  44.0641451  29.5595622  47.0715523 105.5483437   0.7670581  72.4015236
 105.2161789   1.6511074  72.2454548 105.5832100   0.3674022  71.5324497
   5.3253537  38.4789681  32.1875429   4.7312120  38.4130645  32.9351282
   4.9300680  39.1453385  31.6254640  53.8677979   6.0722572  28.0771947
  53.8958883   5.8276665  29.0021896  53.5685587   6.9814789  28.0788517
  39.6157217   4.5285350  56.3159275  39.9719810   3.6435080  56.2382126
  38.8900638   4.4411993  56.9340038  78.1886482 103.3911705  52.0775938
  77.2968388 103.7083149  52.2201872  78.0768061 102.5661087  51.6053772
  98.5301685  73.0554485  86.4714241  99.4299698  72.7323723  86.5185165
  97.9889393  72.2756386  86.5946674 100.5195808   4.9316332  34.4534349
 100.3302956   4.5663878  33.5891438 101.2681770   5.5106562  34.3100595
  73.0958652  90.0224972   3.7336168  72.1406651  90.0817204   3.7159258
  73.3946943  90.9014893   3.5005960   7.9515219 102.8528786  85.5940437
   8.2538992 102.7054787  86.4901924   8.3624053 102.1543407  85.0846767
  25.6303692  34.3799472  31.1236954  25.9664512  35.2247334  30.8243370
  26.2471962  33.7383389  30.7714224  14.4836164  78.5885000  39.0409017
  14.4163644  78.6891699  39.9904156  13.7639976  78.0007696  38.8107920
 104.9886417  11.7705333  26.4805365 105.1638508  11.5667951  27.3992443
 104.0587902  11.9966495  26.4584732  43.3669662  18.9584386  33.4128666
  43.0608988  18.6754525  34.2745352  44.1310263  19.5046318  33.5975790
 106.7510700 101.4111805  39.3980289 107.5072289 100.8601665  39.1959262
 107.0977116 102.0909977  39.9758816  55.0850201   5.7731336   0.6195682
  54.9911833   6.4842349   1.2534150  54.2307425   5.7199574   0.1910625
  34.6183133  35.6107640  15.0727773  33.9892840  35.6762290  15.7912946
  34.8544312  34.6835613  15.0448918  93.3784294 104.7386646  39.6876645
  92.8338814 104.0709972  39.2706323  93.7153530 104.3143654  40.4767656
  29.9480009   3.3764529  54.3579865  30.2623296   2.5456136  54.0014267
  29.3694282   3.7246495  53.6795759  33.3363557  28.7373066  78.1424093
  32.3907328  28.5918927  78.1721735  33.5383224  29.1703105  78.9718390
  35.5804610   9.8178929  25.1397800  35.8254790   9.2664552  24.3967366
  35.7424664   9.2704058  25.9080529   4.8533824  15.9374595  30.9520102
   4.8333430  15.0523841  31.3159776   4.0154123  16.0289705  30.4985094
  42.4101830   2.1383010  45.6674576  43.0314064   2.3389415  44.9674177
  42.5852346   2.7973625  46.3391924  58.6898279  34.6803689  41.2302446
  58.6406183  34.1593671  40.4287624  59.6273613  34.7648287  41.4038229
 113.1025791  20.1017690  25.1915860 112.4169445  20.7379293  25.3951359
 113.3652496  19.7520602  26.0430217  99.7897530  85.2258968  10.2637112
  99.2052650  85.0716591  11.0058868 100.4134083  84.5004368  10.2951884
  83.4055138  98.0308056  14.7699487  83.0503845  97.2605228  14.3263578
  82.7638531  98.2319832  15.4511416  81.3723946   5.3454334  88.9398003
  81.2483788   6.2215638  88.5747719  82.3217297   5.2236611  88.9530373
  30.4132581   1.6203664  27.1663189  30.1842642   0.9260652  27.7841687
  30.2684665   2.4316399  27.6532507  15.6468451  93.3004951  49.0108919
  15.2410245  94.1609573  48.9053679  15.4867017  93.0707741  49.9262142
   2.1030790  70.6602335  20.3196216   2.2556891  69.8145676  19.8979771
   2.8265855  71.2109995  20.0205779  49.6129560  13.9653575  23.8310838
  49.5248699  13.3117759  24.5248437  49.2451096  14.7649968  24.2072439
  36.9511724  25.9416604  36.4284015  37.4317503  25.1680183  36.1338615
  36.3880444  25.6201315  37.1324897  37.7553535  19.8583603  22.0421338
  37.5476933  19.9602079  21.1132979  37.0632482  20.3388596  22.4963832
  52.8576183  23.7046599  88.7664032  53.2279062  23.9037085  87.9064655
  53.3066130  24.3019795  89.3646049  37.4115968  16.0405862  48.5036945
  37.8464246  16.8872809  48.4023809  37.9796982  15.5490398  49.0968800
  27.8267193   1.5835941  75.4725933  27.8060055   0.8370382  76.0713100
  27.0089006   1.5179691  74.9795485  32.1699309  13.6661470  30.4671550
  31.4181709  13.9746201  30.9730554  32.6384950  13.0839491  31.0652566
  27.7032113  13.1444442  27.1175075  28.2137370  13.5669672  27.8082108
  26.9270277  12.8078091  27.5652218  31.9009590  31.2352324  30.2311254
  31.4006257  31.4489102  29.4435740  32.1217871  30.3092837  30.1307130
  36.2906599   0.7907066  20.9435415  36.2115979   0.7948445  21.8974638
  35.6055117   0.1906563  20.6490231  83.7852383  85.1626968  22.1161151
  83.2826328  84.6359634  22.7375364  83.8321495  84.6225452  21.3272762
 102.5820827 105.1382732  41.4549494 103.2371235 104.4744873  41.6706800
 101.9499111 105.0929451  42.1722603  51.2201929  43.3723450  82.5897884
  52.0357847  43.7852192  82.8736496  50.5457115  43.7717342  83.1391525
  25.4469705   0.7655361  48.4090996  25.4623580   1.3953863  47.6884890
  24.8402810   0.0843874  48.1189346   8.8862735   2.7127188  31.9939399
   9.6462369   2.1603377  31.8107367   8.9285672   3.4048069  31.3340473
  83.9900494  82.1933556  23.5903978  84.1541195  82.6362991  24.4229364
  84.8218250  81.7710686  23.3757758  23.2943130  31.3702369  28.8008451
  22.5052929  31.8571854  28.5630178  23.5531831  31.7326832  29.6481037
  85.4955387  95.6294537  14.8968995  85.1462650  96.3502216  14.3727469
  85.2397633  95.8404255  15.7948422  26.8577504   7.2026074  26.3817501
  26.6157675   7.0144576  27.2885466  26.1525321   6.8182784  25.8609915
 112.3667622 105.6415653  28.3512783 112.5496006 104.9123669  27.7587605
 112.6885700 105.3449345  29.2025590 104.9788094  27.9940534  41.3781500
 104.6398449  27.1904755  41.7726088 104.3804550  28.6786413  41.6773939
  22.6175809 107.0120621  45.0622511  23.3503652 106.7373753  45.6134367
  22.0072627 106.2752151  45.0904942   1.9277832  33.4114552  39.6173382
   2.5996637  33.1775689  38.9769435   2.1789594  34.2840576  39.9201703
  27.3740911  35.2737951  20.7494187  26.4600301  35.1209283  20.5099225
  27.6124787  34.5146012  21.2814236  76.1101484  67.0401001  57.1902514
  76.2488127  66.2472248  56.6722202  75.1623392  67.0800877  57.3179007
 100.5588341 107.0169544  19.1567600 101.5147972 107.0139408  19.2052603
 100.3185558 106.0916710  19.1082489  31.3326812  96.7968655  45.4644585
  30.4182386  96.8083572  45.7471180  31.2879872  96.7088985  44.5123577
  48.3712435  21.1672330  43.8706160  47.5611210  20.7277250  44.1290092
  48.2256985  21.4213705  42.9593182  85.4097843  80.8996296  13.8388848
  85.4305458  81.3049126  12.9719698  85.4891014  81.6334724  14.4483185
  82.0751381  99.2533016   6.6602212  81.7253113 100.1091576   6.9079679
  81.6783714  98.6432552   7.2820330  16.8547869  93.1458759  46.3529968
  16.4866483  92.3585129  45.9520340  16.5528500  93.1159019  47.2608376
 109.8656464 101.6848755   7.0157123 110.6981182 101.9746208   6.6425151
 109.2650986 101.6595745   6.2707746  78.8266754  83.5339451  24.4635248
  78.8065863  82.7417564  23.9266300  78.7830591  83.2138062  25.3645468
  28.0315995  55.7719326  81.4934254  28.9777160  55.8831644  81.4000320
  27.6903057  55.8671808  80.6042290  94.5200348  24.4415641  88.8725376
  95.2910233  24.6814942  89.3865776  93.7888813  24.5237112  89.4848251
  34.5531106   6.4011115  41.4935780  34.0330958   5.5991930  41.4412117
  34.8146796   6.4573663  42.4126244  10.0432873  91.2805557  53.3660507
  10.7498860  91.7907429  52.9702473   9.6134472  91.8911362  53.9649391
  60.6543398  71.2845469  81.1162281  59.7021580  71.1993027  81.0680485
  60.9075689  70.7288361  81.8533134   0.8717246   4.3199554  24.2894220
   1.1740868   3.9492598  25.1185131   0.0777392   3.8271594  24.0821266
  42.2354221 105.0885773  66.0073423  43.0486488 105.0640202  66.5116119
  41.5848255 104.6855831  66.5822840   0.1406506  22.7333188  42.7660751
   0.1422305  23.6770725  42.6062059   0.6246361  22.3644233  42.0272207
   8.9669514 106.1310673  64.6971273   9.2769217 105.6289768  65.4508209
   8.9189154 107.0331478  65.0136375  70.4649448  59.9197006  17.8977287
  71.3162565  59.8532772  18.3302653  70.6036615  60.5508709  17.1916032
  38.0564523   0.3098965  29.3549466  37.3689580   0.9703452  29.2689753
  37.7002311  -0.4646853  28.9197898 103.9826584 103.7386894  12.3689234
 103.5336781 104.2985821  11.7355454 103.4067440 103.7322712  13.1334579
  14.5066500   8.5238343  26.4660764  14.8868144   7.6671982  26.2714458
  14.7983706   9.0842938  25.7470393  51.3004827  42.6822424  26.0507941
  50.3605223  42.8628635  26.0598135  51.6409254  43.2203341  25.3360987
  64.1352558  48.4343338   9.7485036  63.4928179  48.5178995  10.4531443
  63.6466312  48.0437946   9.0239644  84.8581219  28.8250446  37.0122743
  85.1657772  29.2975092  37.7858090  84.0242195  28.4405136  37.2824287
  20.0998306  15.6284463  21.9531369  20.8058333  15.0280988  22.1926713
  19.3036222  15.1016998  22.0225763  79.3712807  39.4621444  34.2664289
  79.8530579  40.2617598  34.0549231  80.0509834  38.8025999  34.4051504
  79.5195198  51.1445761  28.8883877  79.3403530  52.0630550  29.0896964
  79.8556709  50.7809973  29.7075629  67.4935722  22.3530960   7.6791257
  67.1687746  22.9399538   6.9962347  68.4422874  22.4800682   7.6727355
  45.8656645   0.2927439  20.9029794  45.0411940   0.3003255  20.4167461
  46.2442970   1.1577366  20.7459497  49.6417379  31.8035364  14.9741745
  50.0614500  31.3445520  15.7017815  50.0978661  32.6436901  14.9259567
  44.5737934  17.4701750  71.6108274  44.0743923  18.1187260  71.1146307
  45.2307463  17.1497130  70.9928083  27.0680904   1.8846273  30.9639740
  26.7352748   1.7082837  31.8439555  26.8124533   2.7901626  30.7882261
  71.0239840  75.9582424  87.1165085  70.0987530  75.7438803  86.9972134
  71.0184383  76.7651415  87.6314068  28.5408545  11.7134368  29.8604155
  29.3664861  11.4176619  30.2439260  28.2926369  11.0131514  29.2569089
  27.1390390   6.2876624   7.5096607  27.3915601   5.8772463   8.3367187
  26.7827415   5.5704618   6.9853461  49.7277784  49.9618053  15.5042267
  48.7720919  49.9099541  15.4898775  50.0016069  49.1964388  16.0096622
  26.9083214   9.3630940   2.7934203  26.6142964   8.4568018   2.7016824
  26.7202735   9.5847517   3.7054172  12.1451974   3.3895549  31.1951423
  12.7797115   3.6958876  30.5472350  11.3715732   3.9338881  31.0487199
  21.6497946  15.1844847  56.3668251  21.2383318  14.8992288  57.1826458
  22.3316836  14.5332575  56.2020159  62.1794462  12.9572904  44.1128969
  62.8346348  12.8094029  44.7948694  62.4945116  12.4508858  43.3642197
  71.4331579  72.3364305  92.3995590  70.9711409  72.1343899  93.2131672
  70.7387638  72.5518894  91.7769623  73.8460445  95.8502483  92.8128624
  73.0408096  96.0150719  93.3034325  73.7486172  94.9558449  92.4860954
  73.5018015  62.4046898  14.0687215  74.0049648  61.5923071  14.1243494
  73.3805847  62.5475454  13.1300354  75.1677275  13.4285319  40.8298874
  75.1204014  14.3797350  40.9258366  75.5038452  13.2936072  39.9438548
  47.7016068  26.6780686  18.2435691  48.5530186  27.1006083  18.3566427
  47.9007435  25.8523130  17.8023136  28.1286550  32.4242520  27.7680397
  27.3822546  32.7107263  28.2943964  27.9725814  32.8051281  26.9038606
  59.2800379  23.8438344  27.5909662  60.1569176  24.0585899  27.9090786
  58.9679527  23.1647301  28.1890059  26.5866947  18.4717643  30.3036451
  27.0400071  18.9680123  29.6221209  26.0001612  19.1078365  30.7130623
  42.3838758   3.1219289  16.5083563  42.6489115   3.9799437  16.1769962
  42.8056479   2.4967802  15.9188390  73.8133907  82.8604698  83.7961864
  74.3732357  83.4974480  83.3522701  73.3143997  82.4478340  83.0912209
  30.4664779  37.6969838  51.4270639  29.5161152  37.7250552  51.3163662
  30.6096840  37.0313835  52.0998907  31.6414762  79.5288038  33.0918074
  31.5970755  80.1814175  33.7906313  32.0418215  79.9923849  32.3562479
  36.6734600  69.4853783  42.0159388  37.5672674  69.6466446  42.3181534
  36.1229372  69.7082376  42.7665997  97.4136829  98.1251907   9.7629470
  96.7947102  98.6261749   9.2317879  97.1028900  97.2217369   9.7046024
  26.9913459  40.6059551  11.1187816  26.4825177  40.9860611  11.8349123
  27.0522308  41.3069439  10.4698324 105.9837055  89.3680573  32.5383282
 106.5544224  89.8945522  33.0980825 105.6985760  88.6461449  33.0984855
   5.2269238  94.8330402   8.3888501   6.1410874  94.9100399   8.6619955
   4.8889759  94.0907097   8.8898134  50.8743238  36.7917728  70.7887554
  49.9926662  36.7112136  70.4248571  51.4440346  36.8624783  70.0228119
  36.7510366   1.9410083  80.5376530  36.5982103   2.7254793  80.0108910
  37.6518226   1.6883300  80.3352451  50.8514500  17.4696529  31.2265348
  50.0774527  17.3494589  30.6763387  51.5902710  17.3578084  30.6283140
   6.8036592 105.5793953  33.5187149   5.8692360 105.7283783  33.3741832
   7.1034962 106.3649273  33.9761686   0.1356685 102.5129700  24.3487310
   0.7684243 101.8070221  24.4809675  -0.2159781 102.3583126  23.4720016
  29.0584302  47.7094698   5.0382143  28.7933540  48.1276798   5.8573997
  29.1655421  48.4347057   4.4227588  66.4524221 105.4625797  18.1965899
  67.2441006 105.0673294  18.5616457  66.5019798 105.2759647  17.2590649
  50.4678392  11.1427653   6.1695659  49.7421932  11.7345691   5.9709710
  51.2533569  11.6490972   5.9626287  20.4763436   9.3141454  66.5024853
  21.3609147   9.2377955  66.8601656  20.0250816   8.5278755  66.8096876
   5.4875219  99.4562912   3.0073744   5.6948656 100.1068878   3.6781639
   6.3296139  99.0530491   2.7964115  65.2321386  35.9620237  22.7536297
  65.4713583  36.0827112  23.6725640  65.8094120  36.5574527  22.2756672
  19.2738736 105.6975174  34.4520736  18.5915267 105.4433537  33.8307524
  19.1591001 105.1004219  35.1913571   0.9083975  92.0800304  39.8598456
   0.2466528  91.7909145  40.4881287   0.7344942  91.5625000  39.0736246
  14.3544769   8.3956927  56.4495516  14.0030789   8.3751446  57.3396826
  14.2335069   9.3016249  56.1651516   9.1701305  24.3723750  18.7750781
   8.4864146  23.8667965  19.2145729   8.7346995  24.7506309  18.0111706
  61.2655115  46.4067030  23.7881446  62.0458508  46.3734674  24.3414903
  60.9151840  45.5163002  23.8143778  10.3906190  84.4466114   9.9103457
  10.6066239  84.9026966   9.0969807  10.9737599  84.8329735  10.5637240
  15.4140496   2.2573410   8.9070308  16.3441086   2.3985295   9.0839148
  15.3293169   2.3767979   7.9611015 104.0282345  27.6852727  88.1419945
 103.8212299  28.1082082  88.9753723 103.7834454  28.3304763  87.4786568
  89.7212410  98.5976791  38.9447784  88.8646030  98.2172394  39.1388392
  90.0621033  98.0659103  38.2255650  80.6010342  91.3597488  82.9372501
  81.4247513  90.8724689  82.9538918  80.0129414  90.8552837  83.4992981
  12.6251543  93.2553864  19.3116057  11.6835451  93.2756424  19.4824696
  12.9651594  92.6004028  19.9212158   4.5455363  77.5697088   7.4869239
   4.4624794  77.0741224   8.3016175   4.6262857  76.9009113   6.8069100
  20.1090193 101.3504314  25.3126860  19.4281852 100.8384418  24.8761439
  20.4693842 100.7570839  25.9717131  43.1808996  28.3990836  57.8314400
  42.6218605  28.6663175  57.1018600  42.6195097  28.4736037  58.6031389
  63.2050467  30.6640697  43.4504700  62.6453257  30.0270963  43.8945484
  63.5827827  30.1800823  42.7160931  40.5777168  44.5381117  76.2865353
  40.2052832  43.9367533  75.6416368  40.2899837  45.4048872  75.9999466
  76.6933680 103.2470894  33.7390542  77.5125027 102.9485607  34.1341996
  76.9462395 103.5585976  32.8700042  64.6932936  60.5294847  90.7529640
  65.1307774  60.4767847  89.9032211  65.3379107  60.1931143  91.3755035
 109.8037529  95.7637310  44.9374151 109.2244530  95.2442360  45.4948807
 110.6210899  95.8242702  45.4319239  33.2010245   7.4230582  45.5804682
  33.9547825   6.8699902  45.3750515  33.1375694   8.0261660  44.8398829
  45.0436831  36.8050408  17.4123216  44.8021317  37.6859474  17.1261632
  44.3896389  36.2343740  17.0088422  25.1379323   5.2843189  25.9507632
  25.4868031   4.7140992  25.2656579  25.1936889   4.7603634  26.7498851
  70.5867624  97.2227287  67.1707726  70.8983088  96.3418102  66.9630241
  71.2325954  97.5657368  67.7884054  75.7392502  98.2730007  33.5400939
  74.9808836  98.8459682  33.6533046  76.4588118  98.7417316  33.9628887
   1.0746430  97.9992104  19.1536105   0.1708381  98.2965469  19.0489173
   1.5632820  98.7917137  19.3758535  63.7814188   3.6148795  20.9178066
  64.1260290   2.7263325  21.0070205  64.2898512   3.9983362  20.2031827
  22.4536753  33.9375663   8.4791005  22.8833556  33.1233907   8.2169425
  22.4819374  34.4864154   7.6953942  35.1738429   0.3577203  61.5747976
  35.2255440  -0.0421438  60.7066536  34.2363167   0.4720488  61.7303848
  34.0317416  12.8069317  42.0775032  34.5509768  12.8082240  41.2733698
  34.6241808  13.1515384  42.7457047  49.0821218   3.2031980  54.4933844
  49.8775291   3.5786188  54.8710346  49.3834209   2.4237785  54.0265274
  48.2485199  20.6929374   9.5337415  47.3429108  20.4065990   9.4149381
  48.7404728  20.2145910   8.8663590  51.7074537  37.4130917  33.9530849
  51.3822508  37.4597263  33.0540299  51.5309381  38.2806659  34.3169355
  39.6380234  18.4712827  33.3090258  39.7674561  17.6999855  32.7571392
  40.1631260  19.1546702  32.8925133  94.3966103  15.8240330  25.3849125
  95.3447151  15.7010746  25.4320693  94.1029549  15.7730865  26.2945294
  53.5801315  35.7717323  22.9140329  54.2933893  36.3304043  23.2228708
  53.1286669  36.3011503  22.2566676   4.8864025  20.8212066  48.2082701
   5.5013347  20.3039527  47.6881409   5.4289871  21.4910364  48.6244011
  60.1101303  26.1638784  11.8289304  59.9300098  26.2578750  12.7643204
  59.3232203  25.7504487  11.4738524  21.2007546  14.1911089  52.9865932
  21.0231090  15.0978160  52.7364826  21.5620565  13.7908828  52.1957016
  36.1474776  37.8141189  41.9802237  35.5418062  38.4579563  41.6129827
  36.8078470  38.3379674  42.4337912   4.0824294  40.9732246  49.1240120
   4.7459668  41.4715958  48.6469603   3.3323959  41.5653038  49.1798973
  55.8187103  59.9912882   3.7844297  55.5851316  59.0740490   3.9270806
  55.3328991  60.4694605   4.4564208  37.6207852  52.4624968  33.8815451
  37.3195887  51.9509792  33.1306386  36.8248653  52.6475716  34.3800330
  54.8055506  42.3155975   8.5558444  54.9031734  43.2590485   8.4269977
  53.9200783  42.2117996   8.9042664  10.1153612   3.7409696  24.1755986
   9.6073580   3.3434224  23.4684062  10.2171004   4.6556628  23.9125061
  87.2332668   2.9016280   5.5428034  86.5962410   2.1893081   5.4877263
  87.8114891   2.6506779   6.2631595  55.1288271   9.7229552  41.5627337
  55.9149218  10.0065839  41.0959959  55.0838900  10.2972198  42.3272181
  67.0666265  40.3402328  36.2628150  68.0025959  40.2270222  36.4282537
  66.8609667  39.6873045  35.5937696  19.9497044  15.4968226  31.1195827
  20.3250742  16.3773501  31.1202860  20.4234743  15.0339341  31.8106008
  87.8143406  90.2784061  43.4592056  88.2560444  90.8195019  44.1136885
  88.0531979  89.3806648  43.6899376  63.1354284   8.4518856  66.3369513
  62.2420645   8.2717395  66.6296577  63.6053085   8.6919713  67.1355772
  78.8326311 105.9628010  47.7151585  78.3595705 106.4979935  48.3523464
  79.7493029 106.2164783  47.8228378  20.7434249  21.4012170  33.7030029
  19.8425221  21.7169952  33.6330652  21.2818909  22.1786284  33.5549474
  23.4888434  17.5918937  39.3009472  23.1563568  17.2585237  40.1343441
  24.0117669  16.8726337  38.9467621  19.7666156   0.3450665  26.7040133
  19.2598927  -0.2450332  26.1461186  20.0276732   1.0591680  26.1225152
  24.2084074  63.8808966  84.9245358  24.6388364  64.5495129  85.4573727
  23.2763910  63.9854479  85.1159668  62.8539181  18.1078219  41.0976696
  63.6869431  17.7092755  41.3495874  62.5711250  18.5850573  41.8777370
  45.1440907   5.4645616  31.9921184  45.8575201   5.8133548  31.4577079
  44.3517733   5.8411694  31.6091895  95.6422615  48.5390043  17.7439892
  96.5499687  48.4570026  17.4514616  95.1637745  48.8202667  16.9641328
  39.6435952  37.2480774  17.7068186  39.4392967  37.7953410  16.9485343
  40.4730558  37.5945401  18.0357349  89.4102097  56.7617512  83.6725712
  89.9084282  55.9497452  83.5794926  89.9984264  57.4424648  83.3456707
  26.7345595   4.2911261  48.0607510  26.3098001   3.8538134  47.3228025
  27.6484799   4.0108499  48.0114698  60.7321548   1.0787562  64.1122007
  60.5365992   1.5112588  63.2809782  60.8912468   0.1651102  63.8751936
  23.5084772  96.5894699   9.4747907  23.5135102  96.3761425  10.4079032
  23.7729526  97.5086689   9.4378144  10.7447982 105.1235771  34.5766616
  11.0342634 105.9961033  34.3099308  10.9454751 105.0800514  35.5115771
  72.6463985  22.1047449  45.3917456  73.1287527  22.2699308  44.5816374
  72.8965569  21.2154508  45.6423616  40.9983826  50.3971672   8.5468370
  41.4639807  50.1679277   9.3511367  40.4708195  51.1596727   8.7845212
  75.1504183  22.2578073  34.4896698  75.2942514  22.6017761  33.6080623
  74.2340994  21.9810677  34.4922543  41.7763710   8.8783664  20.6830263
  42.0370388   9.7606915  20.9471917  41.2791634   9.0072507  19.8753083
  73.0990791  12.2356582  42.3676634  72.8277636  12.9869878  42.8950357
  73.6982489  12.6030147  41.7178345  10.6225479  98.7222767  29.9734020
   9.8639256  98.3895302  30.4529881  11.3413978  98.1457520  30.2324533
  36.1018896  40.9923267   6.4775544  36.3621402  40.3700304   7.1567059
  36.4609337  40.6279421   5.6685168  38.9857793  11.0837662  60.5805731
  39.8084688  10.8729029  61.0221004  38.7087941  10.2581930  60.1831532
 113.2114124 103.4204960  51.4836645 114.0646076 103.6751270  51.1323023
 112.8880024 102.7593422  50.8716917  26.7093039   2.5001392  16.8186831
  27.4412012   1.9162014  16.6197467  27.1154714   3.3567137  16.9511223
  16.9271171  20.4049873  37.4914670  17.6602399  20.5712557  36.8989134
  16.3039601  21.1070585  37.3043823  25.6325722  10.8324230  54.1195488
  25.6715322  11.0007358  55.0610256  25.5286193   9.8834306  54.0499926
  23.3738732 101.7361736  25.3495407  22.7691174 102.0325565  24.6693468
  22.9174018 101.0112572  25.7765722  49.7264051  12.6391864  11.9794345
  50.6330442  12.9394865  12.0431244  49.2023277  13.4222400  12.1479750
  25.9488988  13.1781173   6.2072420  26.3263869  13.0638862   5.3350687
  26.4506745  12.5837886   6.7651188  82.4662113   6.0097295  28.2596755
  82.4660873   6.8104136  27.7351403  82.0667267   6.2675726  29.0904331
  34.4059420  40.0531578  27.1607065  35.0130630  40.7515955  26.9161344
  34.6692872  39.3072581  26.6217113   0.1049041  82.8604603  38.8263488
   0.3680408  83.6826324  38.4128046   0.8077689  82.2477913  38.6099005
  37.0733809  13.0139971   7.3557055  36.8980932  13.9443851   7.4967164
  36.9875383  12.8947663   6.4098471  46.2435389  70.5621147  86.1088848
  45.7950926  71.1725950  85.5237007  45.6155777  70.4001379  86.8129158
  21.8449426  89.5643902  15.3212440  22.1686316  89.0212345  14.6026075
  21.0953498  89.0806961  15.6682134  43.4039497  39.8163080  26.1874151
  43.6411095  40.3688574  26.9321823  43.4700012  40.3959274  25.4285288
  96.1773777 107.0930576  35.6031847  96.9775009 106.7528725  36.0035706
  95.4701614 106.7354393  36.1400104  68.1450272  41.6678095   6.0102880
  67.8067827  42.3966312   6.5305227  69.0491533  41.5616798   6.3061309
  91.2376118  98.3632469  51.8401527  90.4658604  97.9722595  52.2497272
  90.8963203  99.1135979  51.3536072 108.0785656  92.1945763  38.5117340
 108.4566307  91.5680408  39.1287756 108.1210804  91.7515564  37.6642919
 105.9689617  86.2131786  36.9789076 105.9652615  86.3790321  37.9216242
 105.0446510  86.2230778  36.7303491  54.8256350  15.0444663  16.1952209
  54.8519468  15.2257085  15.2557039  55.6157398  14.5305848  16.3622367
  52.4272442   9.8279363  42.3179483  52.4834728  10.5001676  42.9970503
  53.3357477   9.6706861  42.0607901  97.9433727  87.1451283  44.4861889
  98.4831429  86.7601490  43.7957621  97.8970146  86.4669704  45.1601267
  18.7751532  16.2304878  46.7779875  19.0203965  15.4580247  46.2686825
  17.8181481  16.2356997  46.7594051  55.8080435  32.1286750  38.8037634
  56.5279102  32.1355104  39.4346189  55.0819635  32.5492978  39.2643213
  59.7719002   0.1265543  40.1418400  59.3470573   0.5529861  39.3975973
  60.2117014  -0.6344507  39.7627926  32.6424694  14.2778373  85.0916767
  33.5237718  14.5133150  85.3816509  32.3049736  13.7121356  85.7861614
  74.8659849  64.6326351  29.6564674  74.5817327  64.0719891  28.9345884
  74.0792274  64.7569323  30.1873159  49.7949123  79.2349195  90.9768200
  49.7331285  78.2807446  90.9325504  50.0006437  79.4193506  91.8932724
  95.6400967 101.3495827  14.9562120  94.9758244 101.9113255  15.3554666
  96.2897110 101.2187099  15.6469429 113.3870029  77.7701235  23.2149529
 114.1747952  77.4446249  23.6504626 113.2457161  77.1618605  22.4894977
  99.1744900  95.4705334  62.1691704  99.8402977  96.0732651  61.8380451
  98.4961319  95.4685116  61.4938450  27.1622992  21.2754369  25.6087279
  27.9277396  21.7997646  25.8441281  26.6510010  21.8433881  25.0323248
  24.5512247  34.9037147  33.6924577  23.6295748  35.0283742  33.9188576
  24.5920682  35.0752521  32.7516413  60.5289125  89.1292953  87.1972370
  61.0611916  88.4054089  86.8672371  60.0460339  88.7550163  87.9341030
  46.7737961  24.8810983  42.3950911  47.2797871  25.3707767  43.0434847
  45.8950090  24.8242450  42.7702284   6.2154329  85.5138397  47.0222187
   5.8938736  85.4367828  46.1239433   6.7386508  86.3153839  47.0213890
  39.3615246  38.5417891  49.9210262  38.6232781  38.0445099  50.2730703
  40.1329327  38.0301881  50.1647997 103.6615276  85.6173134  33.6757016
 103.4597683  86.1405754  32.8999972 104.1689301  84.8780632  33.3406067
  94.3569946  76.3061762  68.3454370  94.5750904  76.4239788  69.2699814
  93.4847355  76.6897202  68.2543564  13.8954258  26.5595007  51.0570478
  13.1573641  27.0587087  51.4067459  13.5706365  26.1976194  50.2325583
  25.6648469  99.0575600  42.6317883  24.8715091  98.7922668  42.1665287
  26.3815165  98.7127495  42.0991325  65.8352995  25.1625967  31.8395209
  65.2466249  25.8013868  32.2415709  65.4851961  25.0360870  30.9576750
 111.8046284  37.0066547  13.2681620 112.1296787  36.7673564  12.4002290
 111.2018108  37.7323890  13.1064498   6.8293387 106.4707661  24.2198777
   6.0653943 107.0273876  24.0689158   6.9715893 106.0273170  23.3836055
 109.0581322 104.5713329  87.8422260 109.0250111 103.6385059  87.6301861
 108.5335445 104.6547318  88.6385155  52.8840542  15.7711530  44.6248293
  52.0251513  16.1595511  44.7911453  53.0548573  15.9541976  43.7009525
  18.8834190  57.7048969  48.0754471  19.1899133  57.3272514  48.8998699
  18.2980061  57.0410872  47.7109241  96.7033482 106.1900330  17.7252102
  95.9892845 105.6855392  17.3355627  97.2109413 106.5040016  16.9768727
  76.1755943  13.2216263  43.3026075  77.1254683  13.1069565  43.3312654
  75.9139919  12.8440833  42.4628115  17.4921417  91.8995762  35.7445574
  17.8510714  91.0996056  35.3605747  17.8413260  91.9151115  36.6356564
  82.0477390  98.5847473  69.5001316  81.6009235  99.0585327  70.2016401
  81.7771149  99.0324879  68.6985588  24.5170522  26.0657358  45.3036356
  24.9988627  26.7961097  44.9155092  23.5969114  26.2704277  45.1372719
  60.3904343   7.5078261  15.6992781  60.1290512   8.2065427  15.0995207
  60.5806971   7.9575551  16.5225494   7.8737336 106.5502739  30.9570765
   7.5003439 106.0625458  31.6911983   8.7580633 106.1970711  30.8599162
  59.8174477  13.1352711  17.9411936  59.7964478  12.1786976  17.9687095
  59.6244955  13.4050047  18.8391042  28.0185938  17.1067405  70.5347586
  28.7941265  17.3793995  71.0250998  27.3373365  17.0076156  71.1998081
  22.6158619  97.1213150  47.7024317  23.1298947  97.9036713  47.9022455
  22.0276737  97.3945332  46.9984293 100.3277397 104.3416882   9.0724432
  99.8716354 105.1668167   9.2378306  99.7657681 103.8775635   8.4519464
  99.1766357  70.5008793  11.7958546  99.1008472  69.5908880  11.5087938
  98.7591457  70.5159092  12.6570761  13.0874813  29.8215079  62.6578236
  13.9194191  30.1741743  62.9736376  12.4210620  30.3207374  63.1299353
  59.3117380  24.3215370  42.6361227  59.8625278  23.5807824  42.3828506
  59.7011042  24.6424317  43.4495401   7.6826751 105.4862118  38.3102179
   7.9228318 106.4085674  38.2218456   7.6396120 105.1626492  37.4103928
  25.0320411  11.5528512  16.8652654  25.3194380  11.9074082  17.7066481
  24.8066401  12.3239434  16.3448393  60.6117105  11.5197527   1.9546528
  60.8197832  12.4282932   1.7367239  59.6775484  11.5313411   2.1630596
  51.4228821   6.9672388  32.0160961  51.0668993   7.7235901  32.4823999
  50.7590103   6.2859559  32.1226811  98.8733482 106.5764236  10.2487922
  98.2075214 107.2443485  10.0851250  98.5777187 106.1333752  11.0441196
  59.2120934  25.0985861  35.9690499  58.7831593  24.2615819  35.7910872
  58.5030508  25.7411408  35.9441590  34.5452619  12.5495875  20.4728317
  34.3006659  11.9614565  19.7583342  33.9696455  12.3003888  21.1958790
  11.5174651 101.3762474  31.0212517  11.5518260 100.4932690  30.6533027
  11.9167340 101.2906742  31.8869829  26.0972953 100.6979942  16.4436913
  25.7960916  99.8090649  16.6316032  26.9263744 100.5771351  15.9808159
  45.7042646  38.1460881  27.5191283  45.4939795  38.5774970  28.3473182
  46.3079023  38.7470984  27.0825052  86.8321514  99.0812111  80.8659172
  87.4341297  98.7394047  80.2048397  86.3636112  99.7873974  80.4209328
  65.2310133  16.4632297   8.1754690  65.0743341  17.4002945   8.0588764
  65.4024649  16.1373079   7.2919470  80.8690739 106.0507774   0.7017363
  80.6976700 105.5543327  -0.0985084  81.7935181 106.2914562   0.6409095
 106.6612053  98.4543324  41.9601583 105.8153629  98.7574673  41.6301632
 106.4417648  97.9047298  42.7125025  40.0280285  30.2903438  33.9772487
  40.1655436  31.1980152  34.2482686  39.4828463  30.3544950  33.1930971
  84.6329594  12.7077186  33.2426953  85.5858135  12.7397966  33.1574059
  84.4190979  13.4424078  33.8177824  53.8540459  33.4265399  43.4933805
  54.0333939  34.3555236  43.6384726  53.0128193  33.2748771  43.9241648
  74.5550442  96.9717121  58.3867788  74.0089512  97.0060158  59.1721725
  74.0795708  96.3943100  57.7894878  10.4752254  27.4439955  37.5472736
  10.0795007  28.0770993  38.1462812  11.1839855  27.9269838  37.1222878
  46.8009901   0.2421877  45.3471565  47.7497149   0.1164345  45.3285408
  46.6311741   0.6590690  46.1919069  49.0522861  16.9550991  29.1220093
  48.4457159  16.2170398  29.0622234  49.2196083  17.2018945  28.2124329
  65.2639818  47.1764946  17.0654559  64.6632814  46.4993906  17.3767889
  64.9649858  47.3720217  16.1774242  61.3151312  39.6135473  40.1199341
  60.8517313  39.6528029  39.2833042  60.9669590  40.3507996  40.6213999
  17.8202343  19.4756150  20.4866052  18.6423385  19.0923548  20.1808476
  17.6581097  20.2041578  19.8872948  56.6090679  43.9873075  39.3165445
  56.2736130  44.5352030  40.0261307  55.8820915  43.4032011  39.1007853
  29.9321580  87.9977036  35.4043150  30.0428653  88.9467907  35.3476191
  29.1898346  87.8781128  35.9966683  42.6057673  55.5231190  57.7001190
  42.9445982  54.9071455  58.3497334  43.3645630  55.7424927  57.1594334
  64.6735287  62.7597570  18.0756378  63.7406301  62.9222679  18.2153571
  64.9506474  63.4539223  17.4776673   8.9931393  27.3305011  27.5322056
   9.7713542  26.8946457  27.8795433   8.2643491  26.7738652  27.8065276
  39.7607470  17.4595141  25.8112597  39.7202086  16.8159437  26.5186524
  40.0717640  18.2602715  26.2334991  71.7718935  27.1576142  42.4663019
  72.2878838  27.0253348  41.6710091  72.3332024  27.6897097  43.0302525
 100.6598091  26.6216421  46.0261059  99.7730541  26.6282868  45.6657362
 100.5356121  26.7232132  46.9697618  40.7259083  35.5569506  42.3262262
  41.5827656  35.9579444  42.1805143  40.1163721  36.2947345  42.3455811
  70.4339600  20.7890534  59.3351412  70.0710583  21.6710043  59.4169760
  70.4102230  20.6064987  58.3958101  75.5868483  34.6178126  45.2762222
  76.0395765  34.3548465  46.0775471  76.2800980  34.6811652  44.6192408
  40.0097656  19.3326056  23.3439231  39.1924715  19.7091794  23.0176520
  39.7369528  18.7345695  24.0397382  15.1952660  46.5587473  50.6197739
  14.3888128  46.3534784  50.1467752  14.9265611  46.6188526  51.5365171
  60.4259539  66.8488932  75.7005358  61.2934732  66.5649414  75.4124212
  60.5347586  67.0443726  76.6312265  75.3563023  43.2121658  11.6119695
  75.7090092  43.4912062  10.7670021  74.6371984  43.8200855  11.7838848
  59.3777132  48.7406397  20.4338598  59.9763584  48.8966560  21.1642814
  59.6593332  49.3567228  19.7575748  54.6991396  15.5560827  32.3714781
  54.3411541  14.7100294  32.1026444  54.6876574  15.5279207  33.3281946
  35.6436992  46.0605621   1.7505193  34.9300027  46.1526346   1.1193348
  35.2203321  46.1452770   2.6048115  67.6251698  32.3930931  20.1713729
  68.3982611  32.9314303  20.0018072  67.6794434  31.6865849  19.5278406
  46.1872196  10.9225965  15.5259860  46.7570019  10.2372980  15.1767755
  45.3002548  10.5911219  15.3857946  35.8286500  96.0577202  24.3550992
  34.9802923  95.7486820  24.0372682  36.2001061  96.5397453  23.6162472
  54.9409056  48.4541941  18.8061500  55.8554602  48.2201672  18.9644468
  54.8465014  49.3254042  19.1912639  89.9538708  31.6802716  69.8183823
  89.3538475  31.1018109  69.3476534  90.1786804  32.3602271  69.1832781
  26.8924427   6.7394435  29.0901208  26.3618231   6.9541931  29.8572969
  27.1057177   5.8125919  29.1982436  57.1757555  49.3467999  27.8871965
  56.6015100  48.5809898  27.8891134  57.0025206  49.7739697  27.0482993
  68.3971930  20.7170391  57.0809841  68.4222221  19.9056160  57.5881290
  67.4723291  20.8359742  56.8648577  60.7400799  20.3622413  30.6103444
  60.5005407  19.5283008  30.2061200  60.8540058  20.1548600  31.5378380
  42.3270893  23.9444637  54.4849777  41.9712305  23.7972307  55.3612852
  43.2579231  24.1141391  54.6298695  20.6753516 102.1204948  19.0874803
  19.8756635 101.6419411  18.8690364  20.4277968 102.6757526  19.8268318
  59.2128897  50.2643347   9.9827600  59.3448544  50.8498526  10.7284033
  59.8821735  50.5267620   9.3507653  37.5073743 104.3480492  15.7451022
  38.3527780 104.7848034  15.8489037  37.3102999 103.9980888  16.6139662
  60.8371925  37.3268747  14.5578694  61.1230850  36.9368577  15.3839350
  60.5436850  38.2060242  14.7969949  19.0855491  38.0169106  40.4133654
  19.9042118  37.5985003  40.1469898  18.9439559  38.7030363  39.7611260
   2.5196901 106.2297630  39.3952990   2.7372041 105.6397915  40.1170015
   1.8736130 105.7481861  38.8786793  68.9644957  16.4327800  51.7373943
  69.8042059  16.2666273  51.3090134  68.6966085  17.2928917  51.4138556
  46.2487936  14.2091477  46.0231447  45.9808159  15.0390589  46.4176893
  46.3759995  13.6203313  46.7670155  35.5760145  42.4497032  14.0415990
  36.3665557  42.1183348  13.6156106  35.4660702  43.3327246  13.6888635
  76.4342260  16.5918815  46.0580158  76.3019991  17.3484766  46.6292524
  76.6078997  15.8663857  46.6577864  34.8131180  93.8906288  47.5232840
  34.8749113  94.3552399  48.3578730  33.9734530  94.1675949  47.1565628
  24.1602206  22.8923368  33.3012938  24.9714994  23.3852458  33.4241605
  23.6335802  23.1017351  34.0726805  39.9284363  13.4733880  48.4327555
  39.6909046  12.8332770  47.7618837  40.1334047  14.2694557  47.9423523
  61.3178539  58.8584900   9.2721051  60.4691935  58.7138319   9.6905333
  61.1125422  58.9593124   8.3426362  62.1288776  19.0305674  36.1629200
  62.3958874  18.3714163  36.8035889  62.8921890  19.1355515  35.5949688
  23.9699721  26.8442750  62.2855854  24.3307900  26.3972473  61.5199471
  24.1971087  26.2776732  63.0228806  42.4287415  74.6040392  36.0182428
  42.5351238  74.8310709  35.0944614  42.8474236  73.7475634  36.1041474
  29.7407889  60.3247547  40.4686403  30.2945900  60.8883858  41.0088730
  29.2776465  59.7707796  41.0970068  49.1137934  18.9956081  17.2139668
  49.9354839  19.4657433  17.3554635  48.5952663  19.5805144  16.6614759
  32.3099995  34.1840863  70.3317928  33.0503249  34.7906423  70.3163862
  32.6876736  33.3389592  70.0881577  44.6840906  17.4127769  40.3446817
  44.8230743  18.1839335  40.8944416  44.3950319  16.7333341  40.9538078
 113.3780384 105.8450890  46.2805462 112.9904556 105.1063347  46.7498636
 113.6523819 105.4777050  45.4403114  45.1494360  29.9525356  19.7688806
  44.3750048  29.3917418  19.7241926  44.9289894  30.6134701  20.4252338
  71.9955349  67.3414707  33.4240103  72.5981140  66.8074608  33.9416623
  72.4551105  67.4879217  32.5972247  39.0480494  99.2494869  13.5498989
  38.2404065  99.7079277  13.3179951  39.6954608  99.9458313  13.6603439
  42.0527554  96.0874462  24.6518016  41.6024256  95.2522373  24.5258951
  41.3479090  96.7240429  24.7708225  40.6632376  41.4133024  20.8470798
  39.7884846  41.4745569  20.4633045  40.7776403  40.4817343  21.0350108
  72.3518181   1.3549514  32.1416855  72.3063278   2.2181045  32.5529385
  72.6724577   0.7765368  32.8336811  99.4915390  22.1424294  23.4430480
  99.0661049  22.8930330  23.0285239  98.9157963  21.4030075  23.2481098
  62.3546410  24.9674296  40.9559202  62.7657366  24.2449141  41.4304781
  62.6004457  25.7493305  41.4503288  91.9957066   9.7221965  39.5765090
  92.2096920  10.5865633  39.2253518  91.3180733   9.8907030  40.2312231
  87.4784279  59.8090887  84.9604797  88.3149338  60.1363277  84.6296978
  86.9939518  60.5967665  85.2076054  65.4231930  41.2495804  25.6515908
  65.5518579  42.1302319  26.0039139  64.4731665  41.1334181  25.6381679
  57.9242563  32.6442266  53.9960337  56.9680977  32.6008463  53.9856577
  58.2050228  31.8489337  53.5433578  59.0353966  44.8403835  31.8987966
  58.8055992  45.6965828  32.2598386  59.7060061  44.5023394  32.4922943
  33.0285048   7.8414440  25.7076621  32.7888322   7.5042349  26.5708423
  33.9550495   8.0679786  25.7878280  66.7534876  64.9908018  19.4763792
  66.6274643  64.8114109  18.5446239  67.1342468  65.8686447  19.5019221
  90.3852367  78.7257814  82.0514393  91.0095310  78.4473991  81.3813686
  90.8851910  78.7063217  82.8674603  29.9671555  31.2881184  22.8295207
  29.0501380  31.2442279  23.1004167  30.4426432  31.5130377  23.6292410
  45.0751781  24.4437766  17.0766079  45.0346613  24.3188715  16.1284578
  46.0015726  24.6023560  17.2579288  25.3709507  32.8550863  26.7149138
  24.9914122  32.2719383  26.0575557  25.3910780  32.3318696  27.5162077
  20.3765774  78.2377052  36.5973282  20.5805373  77.6955986  35.8352566
  19.8473728  78.9541864  36.2468553  51.2392426  34.6493840   9.8850375
  52.0970488  35.0673389   9.8094368  51.3580799  33.7855411   9.4902152
  31.4371228  76.6974449  53.4165621  31.7558575  77.4824715  52.9711676
  31.8340302  75.9713125  52.9354954  54.3527889  29.0727019  48.3947420
  53.5744905  29.4489980  47.9837894  55.0393486  29.1615295  47.7336979
  50.1373053  21.3845587  31.8961430  49.8421097  21.5273643  30.9968662
  50.9676695  20.9173417  31.8043160  81.4179134  27.8427577  52.4614477
  81.8423271  27.0343351  52.7487898  80.4810524  27.6570368  52.5248384
  19.3824172  38.3094645  81.0632801  20.2971005  38.5881019  81.1074162
  19.4156301  37.3596263  81.1770153  64.8657942  18.8929999  48.7425709
  65.0494003  18.3125818  48.0038977  65.3943539  19.6725440  48.5717869
  89.1558838  98.0240440  76.5310049  89.2663288  98.9433956  76.2884808
  88.2414341  97.8301907  76.3250160  68.5756159  97.1523190  27.0539212
  69.0521336  97.9059505  27.4020600  69.2493868  96.6138649  26.6387820
  73.3206940  19.0202868  69.8243618  72.5334406  19.0470421  69.2805386
  74.0321541  18.8482618  69.2075443  94.9376011  38.7956071  37.8396440
  94.7268200  37.8723979  37.7000427  94.3257713  39.0810204  38.5181952
  33.6431980   9.6915799  63.1110287  33.0907917   9.2129290  63.7290716
  33.9510202   9.0238905  62.4981117 112.7556419 102.8952694  14.6992338
 112.2874737 103.7084293  14.5100033 113.3049202 102.7502918  13.9288378
  22.9694843  53.1591940   3.8066220  22.0310259  53.3061171   3.9246923
  23.3423972  53.2788372   4.6800363  45.4519939  38.6074138  10.0573373
  45.3862333  38.6571932   9.1036969  45.7934093  39.4625664  10.3188384
  12.1121466  16.1523414  24.5681119  12.8237522  16.0893309  23.9310265
  12.2991228  15.4626942  25.2050257  41.0273218 100.7571030  31.3878703
  41.9581413 100.6521797  31.1908865  40.7107544 101.3735008  30.7275081
  31.3269901  25.3879476  43.9300013  32.1654963  25.7768726  44.1787577
  31.4710450  24.4441271  43.9984417  78.8940573  24.1286683  47.8001881
  79.3940592  24.3721485  47.0211220  79.3763924  23.3909369  48.1734657
  63.7133694  24.3186378  10.6601095  63.8689566  23.4610677  11.0558343
  64.1198874  24.9389625  11.2652314  67.1467352  51.9974852   6.2681228
  67.8655338  52.3440361   6.7967606  66.3564825  52.2352600   6.7530894
  32.5080395  31.5006471  12.1539426  31.7086124  31.8462706  11.7568350
  32.6657248  30.6753063  11.6954899  59.1305923  15.1586580  30.0603580
  59.7695303  14.6675360  29.5438385  58.2843399  14.7882581  29.8095798
  13.5170317  50.7494926  30.9845996  14.1640961  50.0487709  31.0653973
  12.6947105  50.3500223  31.2682271  55.6772184  30.0195765  24.2120957
  55.5159760  30.1328659  23.2753992  56.3851166  29.3768716  24.2572618
  59.5099640  36.0546970  36.8407917  58.7816668  36.6464877  37.0294809
  60.2592707  36.4463639  37.2895288  62.2740984  32.8767443  12.5393701
  61.8212414  33.3846426  13.2125640  61.6491365  32.8268123  11.8160725
  31.7652583  54.0320683  15.0120807  32.2691178  54.6729851  15.5136645
  32.3727131  53.3054638  14.8732412  69.7362471  26.0347128  12.6229644
  70.6641197  26.1011457  12.8485036  69.7305584  25.8547974  11.6828430
  40.8784151  49.5477486  24.4134426  41.7225695  49.2567062  24.0685797
  40.5797672  48.8211775  24.9603748  52.7032995  28.7619972  37.5887609
  52.2665501  27.9905128  37.9497242  53.3990383  28.9587784  38.2160234
  71.4266491  33.2881570  27.5334573  72.3293638  33.0579495  27.3135877
  70.9539127  32.4562836  27.5062585 112.9817867 100.1585770  65.4666853
 112.6739216  99.3210983  65.8132172 113.8974094 100.0005627  65.2366877
  17.1453226   3.7906262  82.8933525  17.7798784   3.4592548  82.2579288
  16.5752256   3.0433667  83.0745220  69.4582939  50.3926182  34.9522376
  68.5152245  50.2578926  35.0455070  69.8453856  49.8718691  35.6559491
  66.2276411  34.9534178   0.9062325  65.5978298  34.4121528   1.3822599
  65.8099699  35.8127928   0.8491674 112.4540901  38.4588003  66.8849897
 112.7806187  39.1122127  67.5035858 113.1934738  37.8660202  66.7502356
  49.8709583  43.7012339  54.9321318  49.4079542  44.3350840  54.3843222
  50.7324171  43.6158085  54.5236921  74.2892742  22.3685122  39.5198536
  73.9153385  22.4079633  38.6396003  73.5456848  22.5209451  40.1030111
  58.2158852  50.4878044  29.9534845  57.4645948  51.0300255  30.1938891
  57.9083729  49.9682331  29.2107105  85.3058910  30.2825093   5.3993440
  86.1472607  30.7167602   5.2587914  84.6562767  30.9116769   5.0856811
  57.3749208  45.1084805  28.0746150  57.2423744  44.5032167  28.8042188
  57.0653820  45.9522009  28.4040856  38.5291052  67.3075581  51.2789297
  38.1286550  67.6435852  52.0807743  39.3177080  66.8541527  51.5768528
  24.9571157  17.1134186  24.4461012  25.1420259  16.7822552  25.3249478
  25.8040023  17.0956206  24.0003443  42.2367668   4.8596179  65.1488113
  41.7943907   4.7726148  64.3044376  41.7372179   4.2964980  65.7400656
  53.2308912  72.7806997  23.4345222  53.3064032  71.9049168  23.8133812
  52.7341557  72.6502180  22.6267743  18.8632774  32.8622580   2.1799865
  18.0075073  32.4546242   2.3131166  18.6998415  33.5608411   1.5463446
  36.2523508  13.5561049  34.4506931  35.7112741  12.9840922  33.9063859
  36.7288446  14.1016340  33.8249278  41.5563440  50.4079056  31.6132307
  41.9821692  51.2648535  31.5900278  41.2458754  50.3190470  32.5143123
  81.4606667  73.0386639  67.4905968  82.2467041  72.5115681  67.6339579
  81.7695999  73.8012886  67.0015144  55.4349852  25.0609756  39.2037868
  56.2295151  24.8033714  39.6713352  55.5454731  25.9978938  39.0418983
  38.4710813  55.6094694  20.1676536  37.7138448  56.1465454  20.4008317
  38.8967681  55.4197884  21.0037398  65.7062435  11.0109329  17.2527146
  66.2357426  10.2557826  16.9965637  65.9851980  11.2067163  18.1471896
  61.7503834  53.2435751   0.4076775  62.1354914  53.1717491   1.2810417
  60.8114433  53.1228685   0.5492718  27.6997662 105.6855583  59.6091890
  26.7756629 105.6263447  59.8515844  27.8066802 106.5815735  59.2898655
  49.9004173  36.2733006  44.0141106  50.6610584  36.1428213  44.5803547
  49.2967749  35.5717731  44.2584562  40.1903009  61.5681744  13.3311522
  40.2280092  60.7797766  12.7896357  41.0970068  61.7187452  13.5984385
  49.2036915  26.7853117  28.7539220  49.1509724  27.3479366  29.5265198
  48.2915735  26.6209579  28.5146284  42.4873114  31.6250539  57.0928669
  41.9652605  32.2618222  56.6047859  42.0698929  30.7831502  56.9106770
  13.9338601  99.5301914  18.4821975  13.2827592  98.8513279  18.3048630
  13.6641335 100.2690887  17.9367471  17.2379899  24.6811676  36.1203289
  17.5668061  25.2853370  35.4546785  17.8491747  24.7742033  36.8511009
  52.5889683   2.4638084   1.7830697  53.3181953   1.8746592   1.9763592
  52.5491905   2.4900612   0.8270569   6.7857951  12.1298671  12.2893035
   7.2736961  11.4052260  11.8980491   6.0126966  12.2260022  11.7331481
  84.8121262  24.5808029  47.2956944  85.0809669  23.6819220  47.4853516
  84.8903465  24.6586347  46.3448763  74.6541739  56.9535065  23.9489746
  75.0345898  56.0961676  23.7579751  74.4808054  57.3356533  23.0886602
  53.4106636  21.8972826  13.9579773  54.1991663  21.4616489  14.2815888
  53.2577467  21.5073824  13.0972660  51.7621994  31.7081642  25.4780364
  52.3057461  30.9371328  25.6402016  51.1961794  31.7683458  26.2476015
  82.7315426  32.6605129  44.0390730  83.4608269  33.1658721  44.3982172
  83.0139256  32.4279523  43.1545353  48.3832359  16.0903966  60.2086067
  48.6965275  15.8991241  61.0926294  48.8834000  16.8605876  59.9386549
  53.2334948  21.6836834  55.4201460  52.9128981  21.6390181  54.5193386
  52.6577187  22.3173404  55.8481550  34.5428300  27.5329280  66.9717360
  34.4046855  28.4744716  66.8685579  34.6221995  27.2029996  66.0767031
  34.1808200  34.1642809  74.2839384  34.8555326  34.5925498  73.7570810
  34.6688390  33.6168122  74.8990393  50.0889301  44.2254972  37.4408221
  49.1984987  43.9722729  37.6842141  50.0314474  45.1648092  37.2658348
  61.1695957   8.6960649  18.0561948  60.3897047   8.9018559  18.5716081
  61.6240644   9.5335114  17.9646897  57.1897078   3.7702462  38.7140584
  56.9740391   4.5724636  39.1896296  56.3414049   3.4080678  38.4582329
  75.1363277  37.6855040  25.3948045  74.5638895  37.9909873  24.6910810
  76.0150528  37.9463005  25.1190090   4.6670550  16.3917458  91.4613438
   4.5885515  17.3361290  91.5962887   3.8316509  16.1353564  91.0707092
  77.5255871  24.4900703  65.3946066  77.2495985  25.3412795  65.7344627
  78.1596327  24.7000694  64.7089529  74.7038555  60.2832747  84.5103931
  75.4530430  59.9951696  85.0318718  73.9453411  60.1225615  85.0716877
  41.6619730  31.4874887   5.1691198  40.7752371  31.4217949   5.5235404
  41.7318106  30.7518935   4.5606327  86.4599514  50.7095909   6.0948515
  85.7009506  50.1700544   5.8733988  86.3507843  51.5031624   5.5708677
  85.4123497  22.5856686  48.8665104  86.1865520  22.7544498  49.4034910
  84.8820019  21.9869781  49.3923807  70.9435892   5.4189110  23.5923862
  70.4363728   4.6842483  23.9376879  71.7056894   5.4757214  24.1687655
  19.2105711  35.5337524   5.4288101  18.4491587  35.1059842   5.0370216
  19.6075583  34.8588300   5.9793651  41.8864775  45.9448004  32.7605987
  41.7382860  46.5040302  33.5231805  42.8094673  45.6982613  32.8201199
  59.3267298  24.7961283  24.4603777  59.1225004  24.1819239  25.1655555
  59.3798828  24.2506862  23.6755848  68.3497477  15.1350677  47.0256376
  68.7565374  14.3707037  47.4336815  67.8976345  14.7846746  46.2581396
  58.8595533  32.5990081  48.6579943  59.2294407  32.7977991  47.7978230
  59.1122675  33.3427000  49.2050695  33.3715677  27.3963308  24.6605611
  32.9663849  27.4119520  23.7934875  32.9706550  28.1306958  25.1255465
  67.8112841   7.3472524  52.1642447  67.4174213   8.1818569  52.4182892
  67.0665884   6.7898029  51.9386148  72.9720640  33.6548328  48.6373568
  72.7480555  32.8871393  49.1633797  72.1279764  34.0487838  48.4170055
  72.2279501  10.2675271  51.7494631  71.3891268  10.0415623  51.3475275
  72.7699232  10.5679250  51.0199022  34.7400975  16.0839272  33.3498645
  34.1021276  15.9542489  32.6481462  35.5041623  16.4596200  32.9124951
  38.6888981  19.2486811  63.6889410  38.5195541  19.6693635  64.5318985
  38.4627485  18.3293879  63.8303137  52.5669909  30.5754375  41.1103821
  52.0733500  29.8066425  40.8248901  52.0666218  31.3194108  40.7751703
  67.7185202  39.3097854   7.4435842  68.6106110  38.9823604   7.3287040
  67.7255011  40.1736403   7.0313525  71.2526131  82.0639229  89.7870636
  70.4983902  82.0898914  89.1982460  71.3317442  81.1426353  90.0344372
  70.5204916  37.1730852  42.9517078  70.2408934  36.6041660  42.2345018
  71.2734175  37.6485848  42.6006556  48.2813549  38.1506705  29.9626923
  47.3531199  38.2886982  29.7741270  48.3370161  37.2343469  30.2337718
  20.6135321  96.7281342  28.2283092  20.5381632  96.1012077  28.9476991
  20.8496499  96.1946392  27.4694467  70.4965210  53.6754417  21.9885588
  70.6327248  54.6030331  21.7955470  69.7222900  53.4359789  21.4791870
  21.3760400  16.5460241  34.2840385  21.8390560  17.3815942  34.2234755
  20.4777646  16.7859066  34.5116115  64.7196388  31.3409519  12.4392009
  63.9781332  31.9059658  12.2220278  65.4291868  31.9476438  12.6506197
   6.2282097  57.5415230  82.3594284   6.9215804  58.1222630  82.0460415
   6.4463419  56.6863441  81.9888592  30.9979582  17.6420498  29.2159295
  30.0963664  17.6837850  28.8971448  31.4250278  17.0044851  28.6437821
  26.4361262  32.1785951  17.2864223  26.8143940  32.5064707  16.4705527
  25.5259132  32.4739718  17.2641170  57.6742744  30.3814077  52.4618578
  57.6745605  29.4352913  52.3166275  56.8254900  30.6743741  52.1302509
  65.0771236  29.1150331  16.2792921  65.5580521  29.9316192  16.4139462
  65.5332375  28.4754634  16.8262327  37.0557857   9.0975922  66.9053078
  37.9665685   9.1397250  66.6138792  36.6514111   9.8855138  66.5421343
  43.5099125  28.9716220  26.1563969  44.3055725  28.8972616  25.6294966
  43.8215733  29.2172122  27.0274782  52.1361399  35.5773139  40.8028460
  51.2792873  35.2292538  41.0496044  52.3034000  35.2091599  39.9352527
  74.6408224  17.9291141  11.4087868  75.5123949  18.2523060  11.1804593
  74.3324184  18.5303891  12.0867157  64.0539360  16.1773670  54.4150257
  63.3854103  16.5857124  53.8649750  64.1495132  15.2937257  54.0596771
  46.3196754   4.6819550  41.6955042  46.7012215   5.0719392  42.4819946
  45.3968430   4.9342212  41.7266083  62.7463722   1.7982772  70.4671812
  63.4267092   2.3024337  70.9134960  62.2475767   2.4512678  69.9762249
  94.7890949  84.3846607  19.8842907  94.3430901  83.6456680  20.2980638
  94.5168591  85.1460361  20.3965688  35.0036263  15.4764116  55.8378220
  35.7786202  15.9763372  55.5815172  35.2764535  14.5612633  55.7722473
  20.3872609  67.9290962  31.2069249  20.3957105  67.2980595  30.4872394
  21.1709714  67.7222204  31.7160749  10.7380259  40.3036642  89.9265480
  10.4963768  39.5393515  89.4034195  10.3022277  40.1657820  90.7675648
  50.5502796   6.8061739  44.7168827  50.6842232   6.6143161  43.7887239
  50.4429674   5.9474456  45.1259089  55.0225925  37.9887080  41.6426802
  54.2405558  38.5332680  41.7327118  55.6824493  38.5762167  41.2743711
  83.7329865  95.1122475  51.1511755  83.2439137  95.7846165  50.6768751
  83.3828354  95.1445770  52.0414448  49.8316193  33.3249927  57.7801609
  50.3923655  33.3313251  57.0044327  49.6602488  34.2495179  57.9593706
  55.8212566  17.2948611  49.0699720  55.8274364  17.7656579  49.9033642
  56.2876320  17.8720605  48.4653521  44.8416996  44.6964169   0.9769055
  45.7455301  44.9928045   1.0840255  44.4531488  45.3269386   0.3705235
  68.8209248   2.9695913  38.7267995  67.9309845   3.2401460  38.9527130
  69.2785883   3.7880427  38.5346627  41.0822392  41.2564802  55.2470398
  41.2265205  40.5121279  54.6627903  41.7215252  41.9103670  54.9642372
  23.8071108 103.5626793  75.9438848  24.4586730 103.4861374  75.2468634
  23.1655860 104.1868114  75.6045723  75.9664774  41.9584131  27.8337407
  76.2510681  41.8540144  26.9258094  76.5882730  41.4367342  28.3411384
  36.6086698 104.6761513   7.4900669  36.9360280 103.7918091   7.3257649
  36.3682461 105.0071716   6.6247040  80.0843334  24.7026253  45.3369093
  79.2162085  25.0631905  45.1563978  80.6865501  25.2848101  44.8736382
  92.2629547  99.6971416  89.1927910  93.0941963  99.7611332  88.7225056
  91.6118145 100.0287342  88.5744953  46.8379498  30.1800132  32.1795535
  46.5280771  30.5603790  33.0014610  46.4013624  30.6922674  31.4989519
  42.1383333  28.0718064  51.0807133  41.3127089  27.6188540  50.9092093
  42.0721292  28.8869500  50.5833292  14.0520048 106.3633919  26.9275856
  14.4837165 105.7726288  26.3104510  14.2478776 107.2400379  26.5969062
  44.4058990 103.8380241  37.3100352  45.2669287 104.1285038  37.6108384
  43.8579464 104.6212769  37.3599839  51.6569600   0.4821083  42.4472713
  51.5684387  -0.3836468  42.0486927  51.1741373   0.4169533  43.2712078
  42.9757643  32.8517437  29.3864536  42.5934982  33.1058455  28.5464907
  42.2228622  32.7260017  29.9639988 108.7377453  91.0375214  19.4675517
 108.5207844  90.2857780  18.9161468 109.4004631  90.7065582  20.0737762
  33.0174637  42.3295355  22.2097898  33.4751248  42.4914789  23.0347466
  33.4372377  41.5469408  21.8526340  45.6487322  19.1909063   9.5036680
  45.1439762  19.8194480  10.0197959  45.0454617  18.9049709   8.8177103
  68.3106804  68.6898232  23.5432887  68.4954309  69.3281889  22.8543854
  68.6485863  69.0948725  24.3420315  47.1365089  49.0026014   0.6626233
  46.4366359  49.0687292   0.0129804  47.8021449  49.6209829   0.3613672
  26.9427919  57.6085043  33.5772896  26.4636970  57.0965004  32.9257154
  27.2932696  56.9563055  34.1839433  81.8332863  41.0829020  28.9412761
  81.9906998  41.5404940  29.7671461  81.3032913  40.3240490  29.1851592
  86.7692566  40.0617027  23.5467243  87.0957470  40.5903387  22.8185868
  86.8715382  40.6232500  24.3151259  66.6619158  49.7489786  35.5568528
  66.8016863  50.0334930  36.4600396  65.7276058  49.5458937  35.5115771
  76.6728020  44.7812843  25.5219746  76.4018393  45.0341654  24.6394444
  77.0094538  43.8907003  25.4232001  59.8450470  53.5387897  36.4783144
  59.6311712  53.0480194  37.2718072  58.9967251  53.7252331  36.0760474
  42.5790977  55.4468918  36.4912128  43.1756878  56.0632515  36.0664701
  41.7159843  55.6703043  36.1428547  56.7057371  32.4304748   6.1648190
  56.6789722  33.3832788   6.2524527  56.7936087  32.1097708   7.0624048
  82.5671864  35.0059319  21.1444521  82.7056980  35.0035310  22.0915747
  82.1259689  34.1756988  20.9648108  61.2818336  74.8782349  17.3884809
  60.3310871  74.8154974  17.2969282  61.5755033  75.2772951  16.5694940
  70.3730583   8.6339045  40.8834267  69.5300293   8.5197735  40.4446793
  70.6106710   9.5452249  40.7123470   9.1728121  81.7593098  17.5699890
   8.9630753  82.2971153  18.3335388   8.3215314  81.4834976  17.2301650
  38.9966106  62.4009991   7.7032620  39.7991323  61.9579744   7.9787999
  38.9269495  63.1558228   8.2877469  68.7398624  26.2900949  56.3835573
  68.1463528  25.6161523  56.7148829  68.6659431  26.2272143  55.4312897
  68.7435627  30.9332275  18.1573772  69.1360950  30.2077174  18.6429513
  69.4633913  31.5501332  18.0250680  66.9502783  28.2389355  41.3360167
  67.7418184  28.4521294  41.8302250  66.9177771  28.8960147  40.6407309
  47.6250887  24.7694588  55.4233789  47.3650455  24.5695853  56.3226318
  47.5808668  25.7240224  55.3678131  47.5236940  25.1779604  10.7862878
  48.4668446  25.0145626  10.7865620  47.1484756  24.4159722  11.2276685
  34.4297171  98.0168438  13.0224049  33.5203791  98.0629444  13.3177197
  34.3757415  98.0853176  12.0691836  74.0528345  62.2007036   9.1599411
  74.3617392  63.0362415   9.5102030  74.8031902  61.6127014   9.2463028
  47.3720455  43.6111546  36.9629693  47.2947168  42.6815796  36.7481589
  47.3137712  43.6419630  37.9178977  37.9184055  23.2212186  41.5260506
  38.8068128  23.5761571  41.4947081  37.3511291  23.9896894  41.4637661
  81.7549515   0.0046433  38.2976723  81.5037441  -0.0423225  39.2201257
  81.0054302   0.4145408  37.8658915  79.9999285  34.9750376  23.3978271
  80.9411430  35.1492691  23.3972931  79.8672867  34.3779922  24.1341519
  63.5180044  41.6505337  19.7835779  64.2193270  41.4376926  19.1678858
  62.7661371  41.8567133  19.2282259  79.0735769  51.5316296  13.1233644
  78.2825708  51.9689846  12.8083086  79.7923851  52.0757484  12.8016782
  27.0503664 104.6567917  36.0705924  26.8116951 104.5917130  35.1459122
  27.5336075 103.8503647  36.2505484  62.2233963  39.8668122  37.0914674
  61.4611006  40.4455996  37.0795679  62.3956060  39.6785474  36.1688995
  86.6133213  30.6833124  14.8383605  86.5510082  31.5671182  15.2006257
  87.3395538  30.7299829  14.2165554  49.3202734  46.0561752   5.0021505
  48.5662079  46.5203428   5.3657025  49.8628855  46.7447472   4.6178648
  66.6794729  36.5555000  50.5718708  66.2324142  35.7132292  50.4885149
  66.6291428  36.7620468  51.5051651  47.8405285  47.6283884  27.4607682
  47.5144911  46.7906046  27.7894831  47.7339077  48.2319975  28.1959701
  61.4993763  37.1352816  38.2247329  61.8536949  37.9970193  38.0054188
  62.1529341  36.7488647  38.8076353  58.5457611  40.7895136  30.5061412
  58.7199402  40.3024769  31.3115549  57.8858376  40.2682304  30.0489807
  25.4306078  41.2238121  13.2794034  25.8588409  41.0032082  14.1065562
  24.8523784  41.9550467  13.4966171  66.3553095  23.9923811  75.2373123
  67.2839832  24.1866708  75.1106405  66.2491131  23.9392447  76.1871195
  80.5308628  93.8390064  92.8775501  80.9716034  94.2036629  92.1100903
  80.7281113  92.9029274  92.8447914  69.3738174   3.6796340  20.8604693
  70.1034927   3.5398901  20.2569199  69.4645071   2.9834896  21.5111518
  57.5771666  63.0537987  18.5022676  57.9946327  62.1924686  18.4941566
  56.7738199  62.9258537  19.0067387  55.5834723  18.8832664  11.1754072
  55.9612179  18.0038035  11.1846137  56.1759233  19.4040918  11.7176056
  77.5800705  33.3118534  15.7359314  77.4926519  34.1019082  16.2692261
  78.5056210  33.2880712  15.4929864  64.4561529  44.7053719  36.8272996
  64.8388481  43.8463831  36.6486478  65.1752996  45.2150345  37.2005296
  87.8332329  31.5236378   5.6139725  88.7231922  31.8737078   5.6546158
  87.9439354  30.5770087   5.7027066 104.9307442  24.5801044  24.5899725
 104.0458012  24.6795297  24.2389560 104.8270035  24.6884441  25.5353451
  48.7421656  29.1680479  34.1772056  48.6514568  30.0103498  34.6227717
  48.6946821  29.3834662  33.2457709  70.0567961   2.4550843  23.2617331
  70.8775187   2.8741711  23.0028629  70.3282452   1.6846861  23.7607646
  82.9049015  22.5050426  42.6047850  83.3095551  23.2511449  42.1622801
  83.5331154  21.7913771  42.4940729  67.5709343  62.1595049  41.9469786
  68.2826519  62.3536587  41.3370657  67.9183960  61.4657211  42.5074863
  34.7532701  55.0871372   3.1583214  34.1361523  55.2877378   2.4546471
  34.5270133  55.7005644   3.8574246  61.8782091  46.6880751  43.3019209
  61.2615061  47.1365738  42.7233362  62.7242184  46.7730379  42.8622818
  84.3884277  11.9506562  57.1721935  84.6970463  11.1617184  57.6178026
  84.0204144  12.4918306  57.8707123  37.3314691  43.8323450  44.8927641
  38.2097721  43.5456371  45.1429987  36.7554569  43.4401512  45.5489874
  36.3575888  16.6170359  20.1327991  37.0693541  17.0452118  20.6084967
  35.5967855  16.7091238  20.7063222  75.1752234  31.0572219   7.1344662
  75.7269669  31.5331364   7.7552044  75.6731224  31.0645103   6.3169849
  56.8886137  27.4151301  45.6735325  57.3699379  27.5248814  44.8534632
  57.5448990  27.5524282  46.3566637  55.2834272  33.8509154  30.3061843
  55.4178476  33.0913448  29.7394252  56.0845947  33.9058471  30.8270931
  69.5057011  52.1400738   1.3135234  70.2680111  52.5549364   0.9097865
  69.2674875  52.7250862   2.0327245  78.8590908  31.9933820  27.0913553
  77.9667759  32.3366785  27.1377587  79.3479443  32.5095797  27.7322841
  68.7114954  69.8292112  26.0085654  68.7773228  70.0223875  26.9437575
  69.6179056  69.7134113  25.7235360  90.2694607  34.7987723  38.1409121
  90.0318336  35.6962156  37.9077673  90.5018616  34.3884492  37.3079300
  88.4387875  58.1495667  22.8394556  89.2565727  58.6001873  23.0501556
  87.9042435  58.2421494  23.6280799  73.4176874  28.2840896  44.6500397
  74.1860008  28.2576060  45.2203226  73.0303621  29.1447186  44.8098183
  48.9228868  55.0282192   5.1512587  48.6663485  54.2658854   5.6701720
  48.2499552  55.0942230   4.4737381  69.3287945  32.8885961  44.7436380
  69.6226788  32.8795600  45.6545639  70.0352478  33.3259583  44.2683792
  43.5007715  22.2766352  52.3405981  44.2019129  21.6366124  52.4630737
  42.9088354  21.8657947  51.7104769  33.6902881  54.7702742  38.5812068
  34.5848489  54.5090485  38.7997317  33.7960005  55.5199099  37.9954529
  66.2025309  59.3858242  25.5233884  65.5628252  58.7645769  25.1754522
  66.1388922  60.1449728  24.9438381  43.3497763  28.1351709  23.0909133
  42.8257561  28.7903905  23.5516953  43.4675598  28.4971142  22.2126436
  19.0419364   9.5715249  80.3988361  19.7730732   9.8798728  79.8634911
  19.1132617   8.6172867  80.3748703  60.7837629  34.3351436  30.5695176
  60.0828075  33.8307261  30.1566505  60.4451275  35.2296615  30.6068659
  40.9219837  87.9898167  13.8148046  40.4430866  88.2932281  14.5860565
  41.2950802  87.1491432  14.0799356  72.9945135  73.9466429  26.6351509
  72.8784609  74.7007942  27.2130990  73.7977552  74.1374588  26.1507726
  66.1002684  52.7376842  41.3552332  65.8566523  53.6616516  41.4114904
  66.4817142  52.5380802  42.2101498  25.3214717  84.5679855  13.9136803
  24.5244074  85.0839329  14.0350175  25.2251434  83.8325310  14.5187092
  60.6602335  51.9128418  11.9090378  61.5997219  51.7991924  12.0528448
  60.6013012  52.4126434  11.0948157  63.6028051  38.8448644  48.4875584
  62.7272034  38.5022593  48.3081913  63.5577297  39.7651076  48.2280350
  11.4035618  92.7950478  90.6675243  10.8880126  93.4556103  91.1302185
  12.2893941  93.1568527  90.6425095  18.6168373  65.3232479  37.0518208
  18.0098510  65.9244537  36.6201353  18.9033616  64.7316074  36.3560510
  52.4013186  87.5901508  58.9067650  52.7226877  88.4699440  58.7094879
  51.7183495  87.7262974  59.5634651  59.6373034  27.7356863  49.5561171
  59.4993830  26.7953444  49.4422531  58.7747574  28.0774999  49.7915030
  40.8294916  44.2393160  30.9784508  40.1071930  44.6889687  30.5399036
  41.1145115  44.8501348  31.6580772 101.0809708  83.5432816  84.6077824
 100.4232121  83.7335491  83.9389133 100.6017303  83.0682564  85.2866840
  44.7191143  74.5769215  49.4118261  44.9438477  74.4575930  48.4890652
  45.5602026  74.5533323  49.8681688  62.6839876  59.2458820  35.6277490
  62.9003286  60.0139856  35.0991201  62.8573275  58.5017538  35.0511551
  39.6168947  40.9756994  48.7896585  39.4597554  40.1105928  49.1679907
  40.4126692  41.2853289  49.2222118  75.6299114  66.4708853  25.0382972
  75.9632969  67.1050453  24.4035292  75.6148148  66.9478607  25.8680558
  55.1872015  46.8948030   9.7194117  54.6054125  47.5664902   9.3636161
  56.0669327  47.2533131   9.6020657  56.3666964  38.5311556  53.3862782
  56.2138796  37.7016091  52.9338074  56.6962719  39.1180325  52.7057028
  89.6583176  12.0069635  31.9304681  89.6048069  11.0664403  32.1001363
  90.4111671  12.3004580  32.4436045  61.8996382  17.2622323  15.1318634
  60.9916162  17.0539284  15.3517270  61.9932842  16.9908309  14.2187345
  73.1171465  82.4124050  22.2992849  72.3181105  81.8981743  22.4147534
  73.0267048  82.8036594  21.4303946  55.3161860  46.5628529  16.4643502
  55.5409813  47.0358133  17.2656047  55.3498220  47.2275686  15.7764196
  36.5962076  65.3611183   6.7643708  37.1264100  65.9819031   7.2641164
  37.1775126  65.0561333   6.0677373  66.0407829  46.2816143   9.1322464
  65.5385733  46.9350576   9.6190995  66.6211939  45.8903885   9.7851592
  56.2230921  46.1638355  33.3447719  56.9693184  46.6083813  32.9425812
  55.7229280  46.8652248  33.7620521 110.1364994  27.0608997  75.7739639
 110.8057117  26.4430666  76.0683775 110.5961609  27.8978109  75.7067156
  72.7502918  64.1587543  23.5585618  72.3286819  63.5476494  22.9543900
  72.5623226  63.8043737  24.4276476  43.1855345  58.6783075  59.4131804
  43.2929373  58.2290840  58.5747910  43.9679718  59.2236328  59.4946766
  56.4524651  29.7632504  35.2599597  57.3208189  29.9268341  35.6279683
  56.3936043  30.3573751  34.5117736  72.6756048  25.7043910  45.8036804
  71.8628788  25.4104066  45.3922415  72.9248905  26.4857578  45.3101683
  83.0613804  42.9660082  16.2026322  82.7379036  42.1628523  16.6107166
  82.6546001  42.9750681  15.3362155   1.1943179   3.0586192  85.9936523
   1.9187641   2.6248080  86.4444447   0.7774460   3.5931867  86.6694355
  87.5057411  24.4522238  33.2534599  88.1011200  24.7644091  33.9348531
  86.7816639  24.0505838  33.7336946  61.8653631  22.7005649  30.4764366
  61.7844057  22.9471445  31.3977814  61.3449240  21.9012690  30.3957915
  89.5545769  42.7087593  20.2490973  89.9666691  42.2034645  19.5483243
  90.2494335  42.8324032  20.8957195  82.1915054  35.7174635  18.3308721
  83.0118084  35.7192159  17.8375793  82.4632072  35.6659293  19.2472541
  67.6400948  36.6759300  29.7344851  67.3421144  35.8568287  29.3388700
  67.7667809  37.2678638  28.9930010  54.2813540  50.2957916  20.8486867
  55.2288198  50.4317045  20.8573031  53.9209414  51.0974360  21.2277746
  26.8230987  58.9739275  14.5150578  27.7247071  58.6791658  14.3868077
  26.3781381  58.2212257  14.9045193  59.5372725  18.2681632  27.5886011
  60.4665041  18.4027076  27.4024439  59.5042658  18.0935264  28.5291576
  74.7372675  77.8169250  26.0696292  74.5340586  77.9945421  25.1512671
  75.5611372  77.3303556  26.0428667  74.2446947  46.7427254   5.4645127
  73.7156200  47.5398731   5.4351377  74.3150902  46.4681530   4.5502436
 100.5721378  97.1879292  88.9633274 100.0791073  97.5495243  88.2268429
 101.4433479  97.5760174  88.8819408  84.0518188  51.9498158  33.4948039
  83.3183098  52.5627375  33.5450602  84.2622566  51.9040775  32.5621414
  65.3961802  19.9992490  52.5508261  64.6745157  20.6057811  52.3848486
  66.1069679  20.5546188  52.8711033  41.4536476  47.2553825   1.2289129
  40.7095385  47.1222067   0.6417134  42.1142149  47.6843500   0.6849767
  65.0028467  75.2452707  41.5604258  65.5011463  75.9932327  41.8897963
  64.2162704  75.6321239  41.1758757  55.2863264  36.2132096  38.0836844
  55.6420946  36.0463858  38.9565134  54.5606565  35.5948305  37.9986143
  53.4210634  55.1853514  32.3946619  53.4476328  55.5152559  31.4965057
  54.1765690  54.6009874  32.4576235  35.8586359  42.9718971   8.4573245
  35.6873012  42.2962952   7.8012478  34.9945688  43.3257914   8.6679935
  15.6288755  22.6007295  36.8152237  16.2061596  23.3155155  36.5467954
  14.8478544  22.7068019  36.2720966  53.0006647  45.8422613  35.1867127
  52.6706409  46.6565704  34.8069477  53.2004595  45.2893972  34.4312978
  59.3569803   7.3732960  49.0406704  59.0956736   7.4609804  48.1240129
  58.5542202   7.1179086  49.4951868  69.6216488  46.8965721  27.4554491
  68.8549232  47.1012783  27.9906678  69.2741108  46.7901564  26.5699387
  39.4595814  40.3481960   9.1110092  38.5989213  39.9533606   9.2510062
  40.0100136  39.6236539   8.8138616  65.4976034  19.0831840  38.9928222
  65.5385113  18.3310080  39.5834064  65.5034685  19.8441684  39.5734239
  69.6720982  68.5724401  34.4418764  70.4001904  68.2381248  33.9180994
  70.0898743  68.9765310  35.2024078  65.9472513  54.8405457  30.0591874
  66.7467546  55.3294230  30.2541995  65.5659676  55.2948332  29.3078709
  34.5892572  23.4016490  45.5085039  33.8848042  22.9199553  45.9420347
  34.5159054  23.1550717  44.5865202  66.7459631  43.0805731  18.1237626
  67.6730824  43.2986450  18.2192969  66.2941074  43.6985779  18.6983347
  55.8030701  67.0416355  32.1402192  56.1537647  66.1624718  32.2827578
  54.9721670  66.8975401  31.6873670  67.5663185  32.5803566  22.9136372
  67.2706938  32.5979257  22.0034027  68.3696222  32.0601940  22.8945708
  43.9458799  36.1597490  22.0801187  44.7530317  35.6476760  22.1303010
  43.2595348  35.5105305  21.9262362  53.0790234  23.2762313  44.2498779
  52.4510336  22.8051353  43.7022209  53.3880186  22.6222014  44.8767757
  51.9706821  66.1742783  26.7354012  51.5941620  66.9117022  27.2156811
  52.1662045  65.5238914  27.4099374   9.4812453  97.5376034  79.5159960
  10.1639521  97.6604366  80.1755810   9.0807211  96.6974258  79.7394419
  62.5151062  78.2632875  35.1778388  62.7605963  77.7676344  34.3966246
  63.3493376  78.5263348  35.5665588  64.4495916  38.1769490  44.3257618
  65.0469398  38.6430550  43.7408304  63.7506342  37.8617573  43.7527466
  89.8741531  62.3427153  20.1662731  90.7320595  62.0879507  20.5058503
  89.6235657  61.6244268  19.5853257  35.5340600  56.3062334  25.3065205
  34.8321128  55.7318783  25.0005412  35.4677963  56.2778902  26.2610030
  37.6758099  67.2992563  36.3732052  37.5473309  68.2280254  36.5658641
  38.4949636  67.2682476  35.8789802 106.3187218  62.7096176  16.2046635
 105.7207203  62.1727705  15.6846476 105.7458305  63.2235193  16.7738116
  67.3544168  46.8901014  34.8513722  67.6033163  47.6647711  35.3555274
  66.5526199  47.1478176  34.3964720  49.5663118  44.0732718  11.7315698
  48.9946508  44.3204832  12.4584293  49.6060324  44.8555183  11.1813462
   4.3409267  65.1437855  17.4736118   4.7162551  64.2854309  17.6700425
   5.0666332  65.6422329  17.0979357  65.4362822  27.8788686  32.4956727
  65.5811644  28.6965227  32.0195603  65.9710312  27.9633760  33.2850599
  37.1981812  39.7278333  44.0122652  37.6213908  40.2245331  44.7125626
  36.2637830  39.7784138  44.2136955  91.9153786  56.4554071  42.1793175
  91.7600060  57.3020267  42.5980330  92.4469185  55.9700871  42.8103113
  51.0700464  30.4533362  17.4049294  50.6482410  30.8760285  18.1530225
  51.7538118  29.9070978  17.7926409  43.8960981   8.7324005  17.7801633
  44.2514753   9.4039100  18.3624113  43.5101271   8.0843127  18.3694351
  81.6490746  58.6387014   8.9051491  82.0378017  57.7643108   8.8813889
  81.3850784  58.8081074   8.0008042  24.1889858  55.9354734   7.2527713
  23.4902978  56.3759089   6.7689466  24.0055799  56.1329556   8.1712461
  84.5257282  18.3272612  53.2631588  83.6473846  18.3317053  52.8827286
  85.0979900  18.6046863  52.5477743  28.2007217  16.5933704  38.4706950
  28.4651232  15.9916782  39.1666055  27.2520638  16.6729081  38.5704541
  66.7498112   6.1408472  37.2986126  66.7584515   5.3900135  37.8922510
  66.1725807   5.8739305  36.5832186  74.5554733  27.0741701  28.4964752
  74.6414137  27.9918814  28.7546515  75.4386997  26.7163301  28.5864544
  17.1295226 107.2283077  67.2732115  17.8346634 106.8695068  67.8119755
  16.4875269 106.5205860  67.2166014  63.1072283  40.4822159  34.3332386
  62.6139355  40.3904438  33.5180902  64.0204763  40.5487251  34.0543413
  70.5784082  62.8186321  51.0634041  70.6188917  62.4731779  51.9551754
  69.6689701  63.0970144  50.9554434  69.6149445  74.3919659  12.9877758
  69.4378948  75.2028084  13.4646618  69.5922661  74.6467590  12.0653892
  68.5829496  26.0605431  38.8165569  67.8348684  25.8697796  39.3824315
  69.0662956  26.7439866  39.2807889  47.7106762  53.0522394   7.1034455
  47.8985119  53.6990690   7.7835637  48.1044006  52.2423315   7.4278843
  61.4189148  53.3680058  17.3645568  62.2118282  52.9655552  17.7188933
  60.7238340  53.0957031  17.9636741  72.1329308  32.0695114   4.1687548
  71.6327143  32.4479127   3.4456876  72.8712702  31.6312313   3.7456742
  33.8288879 106.0138130  21.1690760  34.1830254 106.8191528  20.7919335
  33.4667134 105.5382824  20.4214549  48.6679840  28.5178423   9.3640351
  49.0946484  27.8552675   8.8207275  48.9243031  28.2950759  10.2589679
  10.8210266  32.0899177   5.4091346  11.1293983  31.8320251   4.5404401
  10.6090927  33.0192757   5.3219134  78.3340216  34.1861129  38.8719487
  78.3024073  33.7565541  39.7267652  77.4972820  34.6459651  38.8038850
  32.9504251  44.3095112  35.6782722  33.2261515  43.5529137  36.1957312
  32.3148346  43.9554787  35.0562453  51.6668892  10.8209860  37.0483541
  50.9213543  11.4011991  37.2024965  51.3968801   9.9805683  37.4185228
  48.9446306   9.5633733  53.1956577  49.2522669  10.4662633  53.2755327
  47.9934120   9.6258968  53.2822895  13.2494462  67.4374008  47.1806145
  13.4509957  67.1159554  46.3018179  13.0645347  66.6471720  47.6881361
  67.8758287  53.1268644  20.8624411  67.2869444  52.5564814  21.3565159
  67.3420858  53.8909149  20.6443214  47.1922398 102.3492432  46.0603237
  47.7532053 102.5210381  46.8166542  47.5706387 101.5697384  45.6536102
  57.8427935  38.5385823  16.3849759  57.3844957  39.3571711  16.5749955
  58.7379742  38.6892104  16.6886199  37.2983432  17.8893292  40.1420403
  36.4339304  18.2676721  39.9811649  37.1775222  17.3351991  40.9131289
  73.8471460  35.4756665  36.0151029  72.9251909  35.2440238  36.1272049
  74.0492916  36.0267448  36.7711973  91.2596989  31.0002398  30.9253001
  91.6258621  31.2397695  31.7766380  90.9451675  31.8266511  30.5587697
  87.9471302  25.5789590  43.5734272  87.9570770  24.9376035  44.2839193
  87.7840519  25.0608039  42.7852964  48.0175686  35.5449963  40.3440905
  48.4217215  34.7393513  40.6663084  47.6619387  35.3085446  39.4874406
  21.2930679  69.9093151  36.3366699  22.0863724  69.4884872  36.0053015
  21.6053462  70.5098248  37.0135021  44.8133469  41.4551592  20.0666142
  44.1955996  40.7665110  20.3123426  45.6753826  41.0757113  20.2373385
  71.1289024  61.3156652  35.0655746  71.5540886  62.0125151  35.5654192
  70.2442503  61.6430616  34.9029899  68.6719990  24.0818071  66.3785601
  69.2100716  24.8730898  66.3545179  69.1135931  23.5108900  67.0072699
  79.7278595  46.1856174  25.6819606  79.0042639  46.2603045  26.3040996
  79.6638536  46.9749308  25.1442575  73.6308908  54.4036484  41.4656830
  74.3579054  54.7043610  40.9204769  72.8869295  54.3519306  40.8656168
  72.8824949  54.2821980  16.3479996  72.5351810  54.7211075  17.1245074
  72.5575209  54.8025703  15.6132662  82.9670715  33.6321568  27.9239368
  82.8433037  32.8165603  27.4384308  82.4589062  33.5127544  28.7262726
  63.5791636  37.4034595  30.5705261  63.5413313  38.1666756  29.9940729
  63.4065247  36.6590905  29.9940348  36.0635257  25.4140997  22.0927644
  35.6364679  26.2604523  21.9603252  36.3201261  25.4169965  23.0149245
   2.2934705  99.3366814  92.9262924   2.1923080  99.3170834  91.9746494
   2.2559868  98.4173203  93.1901169  74.1475677  46.5718174  17.6180661
  73.7512207  45.8518553  17.1273565  75.0893736  46.4598465  17.4888527
  97.0026970  58.7760258  55.2846146  96.9909000  59.6485472  55.6780624
  97.9155731  58.4958029  55.3507280  68.9289761  62.7894115  20.0174928
  68.2129192  63.3742571  20.2653861  68.5666084  62.2524405  19.3128049
  87.4784756  53.8286304  24.9837947  87.2344875  53.6125231  25.8837938
  87.9671860  53.0644846  24.6780610  72.8068018  77.1062088  47.9481173
  73.5404968  76.8518209  48.5077667  73.2095909  77.3147154  47.1051931
  89.0048695  75.1952744  51.7652559  89.4786358  74.3636227  51.7534637
  88.2004833  75.0058603  52.2482824 100.9106255  78.5199881  25.5230451
 100.0266647  78.4858227  25.8886766 101.4233780  78.9912844  26.1796975
  53.2551050  66.0385275  31.1147165  52.3386431  65.8967829  30.8775711
  53.5496235  66.7345190  30.5272746  97.3369122  86.2300396  28.2384109
  97.5207710  87.1259499  27.9559827  97.0978928  86.3141727  29.1614604
  52.6288891  85.5832100   3.6308798  52.2129583  85.8753681   4.4419780
  52.1289015  86.0130692   2.9370004  83.9978123  64.6149778  37.6096582
  83.6876392  63.7138176  37.6987481  84.9147511  64.5280170  37.3490930
  82.5114632  75.8756685  48.3004379  83.1108284  76.3525438  47.7263403
  82.9727650  75.8228016  49.1374731  10.4696208  90.4919989  93.0428182
  11.1665755  91.0280902  92.6645472   9.9291163  90.2389700  92.2944396
  69.2167044  54.9049568   5.6397164  69.8817873  54.3222904   6.0063183
  68.4450054  54.7624207   6.1877984  88.9693546  75.8666754  45.4210234
  88.5456181  75.0908327  45.0539398  88.8504696  75.7796097  46.3668108
  29.8246789  30.3763938  88.0555534  29.1798878  29.8835349  88.5630608
  29.3891406  31.2048316  87.8549862  69.4988298  31.5969801  10.2305174
  68.8706255  31.6354322   9.5093256  70.1283550  32.2916150  10.0370920
  65.8508348  56.9262409  48.6524391  66.2076521  57.3101282  47.8514767
  65.4085588  57.6535416  49.0902233  67.6366854  62.5167036  32.0719337
  67.6675129  63.4731770  32.0507956  66.8068647  62.2944260  31.6497707
  82.7267551  34.9176383  32.5351763  82.1688080  34.8459411  33.3096361
  83.5711670  34.5640278  32.8147554  53.4445381  39.2586374  10.9918642
  54.1416264  38.8611794  11.5137136  53.1953144  38.5777950  10.3669047
  77.0853376  58.2590961  12.4555755  76.3705969  57.7085352  12.7753484
  76.6561031  59.0635347  12.1642458  77.6464128  73.1292105  25.9511876
  77.6062107  73.3203602  26.8882442  78.4309721  72.5902414  25.8501315
  50.6139898  55.5628920  24.1994381  50.3260851  54.6592045  24.3286419
  51.5124321  55.5775213  24.5293212  74.5962143  85.0037956  34.6017528
  74.6429110  84.9128723  35.5534816  73.6591101  85.0427628  34.4105697
  67.9236555  60.6045389  44.1556406  68.2663870  61.2724066  44.7495461
  68.0282068  59.7821283  44.6341181  60.6885624  82.1212482  57.9651499
  60.5971098  81.7320824  58.8348770  61.1557484  81.4598560  57.4547338
  68.8249445  52.5154781  37.6022577  67.9019642  52.4565983  37.8489661
  68.9639330  53.4437370  37.4144936  64.3736553  40.8163834  39.3480301
  63.4445333  40.6139135  39.4574380  64.8002815  39.9612761  39.2931390
  54.9567366  47.3421383  27.2283912  54.0094471  47.4564075  27.3046613
  55.0626183  46.6471291  26.5787911  69.7891998  64.1875124  28.6935163
  68.8957310  64.2446852  28.3548784  69.8339510  64.8661852  29.3670368
  72.8621387  59.8775816  19.1506410  73.6737490  60.0416565  18.6704314
  73.0204248  60.2438307  20.0207210  87.9085064  58.6100149  31.0222483
  87.4295616  58.1196785  31.6903877  88.1947803  59.4066906  31.4689970
  81.8676186  70.5735111  24.5131397  82.5974464  70.8245230  23.9469433
  82.1444416  69.7468376  24.9083877  63.1477594  40.3796530  16.5751779
  63.5093975  39.6863198  17.1272087  63.5112667  40.2082348  15.7064378
  97.1231079  80.1656532  30.5946231  97.5241375  81.0238266  30.7322931
  96.2426662  80.3613663  30.2740502  47.2450781  44.0453625  22.7601099
  47.6498508  44.0791607  21.8933654  46.8826628  43.1615114  22.8209043
  60.8049107  39.4813156  17.7752972  61.6638184  39.6356416  17.3819828
  60.4889727  40.3537083  18.0105627  77.6261044  64.9080658  46.3752651
  78.4578896  64.7918367  46.8344593  77.6862383  64.3240690  45.6192493
  98.1767464  57.6252604  15.1807559  98.7780952  57.1839714  14.5808613
  97.5821590  56.9350815  15.4746032  71.5281248  96.9622707  11.1941397
  71.2551689  96.2055111  10.6754386  70.7088137  97.3492718  11.5026641
  68.5339212  58.4850693  41.7883587  68.4802723  58.3512926  40.8420706
  69.2123079  59.1514063  41.8979692  70.9206533  62.4571180  21.9640183
  70.2802515  62.6187325  22.6568389  70.4499340  62.6496410  21.1530972
 110.6307411  56.2446117  38.3074617 110.5672836  57.1920061  38.4284925
 109.8313713  56.0092497  37.8364682  63.8650942  64.9654245  36.3136721
  63.4964609  64.9033022  37.1948552  63.8864326  64.0617752  35.9987187
  42.2654057  60.4105139   6.8215179  43.0229902  59.8276663   6.7706192
  41.8502569  60.3393126   5.9619761  82.9382420  73.5270643   5.3023881
  83.3827019  74.2626858   4.8810178  83.3117676  72.7507544   4.8851925
  38.5383105  62.2402525  18.0153513  37.9316902  62.8674650  18.4088516
  39.3282747  62.7505684  17.8371251  48.6696196  25.6033707  78.4408188
  48.1210041  25.6692410  77.6592159  48.1511641  26.0141873  79.1326761
  91.3666821  39.3356872  18.5551202  91.1973572  40.2267313  18.2491779
  91.8463993  39.4511747  19.3753386  41.7192507  36.5050650  47.4937439
  40.9143734  36.2908459  47.9654551  42.2824860  36.9106054  48.1529379
  66.3042450  36.2424254  25.6479669  67.2064924  36.3783431  25.3586555
  66.1851406  36.8678117  26.3627672 103.9473915  85.8256340  47.0388365
 103.5713577  85.3508759  47.7800703 103.3634853  85.6277943  46.3066101
  92.9926777  59.5055294   1.6732551  92.0689964  59.5370054   1.4241782
  93.1614590  60.3575611   2.0754829  90.4686356  65.6552029  76.9766998
  91.3467979  65.9554768  77.2110224  90.4540443  64.7334146  77.2342300
 111.8257332  52.4711180  25.5589581 112.4176121  53.2210732  25.5000567
 111.2467957  52.6799011  26.2920880  95.0005722  73.4882259  15.8185410
  95.5223560  73.1816006  16.5601313  94.6209908  74.3143368  16.1180389
  78.3399153  58.6818457  30.4943395  78.5940742  57.8570795  30.0803375
  77.5129080  58.4842968  30.9339595  79.0198040  57.9928780  39.8251629
  78.5714579  58.6437368  39.2851591  78.5150099  57.1892595  39.7002387
  44.3215561  41.1357689  23.6451840  45.2517509  41.3056707  23.7938571
  44.2944527  40.2487898  23.2863402   6.7058802  73.4277296  21.8377185
   6.8790430  74.0690184  22.5269198   6.1915803  73.9071512  21.1881971
 104.0039539  70.7285023  35.6502008 103.7691307  70.3973198  36.5170383
 103.3695984  70.3231525  35.0590062  65.4934692  73.9694214  23.7089705
  65.8720016  73.2960796  24.2742610  64.6567297  73.6012459  23.4251618
  84.4868183  71.6291428  51.6125584  84.0275478  71.7895651  52.4369144
  83.8661098  71.8997240  50.9359837  95.2675724  69.2699385  41.0603809
  96.1224556  69.0310001  40.7021475  95.1636791  68.7072611  41.8277311
  47.2294426  76.8521976  21.5704060  46.8360233  77.3082209  22.3143768
  47.1905088  77.4853325  20.8535695  78.2725191  70.5429983  44.1567326
  79.0696621  71.0705090  44.1064501  77.5609159  71.1831713  44.1509438
  50.1340961  61.5857267   6.6115874  50.9688997  61.1188078   6.6478825
  49.4817543  60.9294462   6.8564832  90.9160709  43.1746960   9.1912991
  91.1302376  43.9684439   8.7010580  90.0909519  42.8735352   8.8108897
  51.4857912  46.9154358  12.7451336  50.7404804  47.4695969  12.5134993
  51.3451481  46.6977262  13.6665750  63.0580664  55.4399014   9.4837159
  62.4063921  56.1187696   9.3085164  63.7294865  55.8810234  10.0041378
  96.9636536  69.7658634  45.1231575  97.5224304  69.2235041  44.5665216
  97.5755787  70.2498436  45.6777287  62.5311041  64.6257353   2.6117182
  61.8723106  64.6113873   3.3059931  62.0318460  64.4978189   1.8051142
  63.4430647  75.2593088   7.9241061  63.9975023  76.0328197   7.8215885
  63.8015461  74.6238422   7.3045057  63.8914394  45.1970100  44.6046734
  63.2094193  45.8217669  44.3581820  64.0127420  45.3332043  45.5443382
  82.5983143  69.0066290  44.5544291  82.8232956  68.1586456  44.9372339
  82.4536228  68.8198614  43.6268425  81.3353634  59.0555334  31.0314727
  81.4874363  58.9228725  30.0957870  80.4131126  59.3047571  31.0912681
  25.8843350  61.9766903  30.6982374  25.1472211  62.0423174  31.3053536
  26.6531444  62.1760082  31.2325001  93.3421135  56.7993116   7.8942031
  94.2917442  56.7279625   7.7975315  93.1123638  57.5980568   7.4193823
  73.0401373 102.4447441  89.8442554  72.5440073 103.2304573  89.6146107
  73.4602451 102.6614952  90.6765747  57.4238968  37.8098917  37.3592401
  57.7819967  38.2439685  38.1335616  56.7011690  37.2794819  37.6947427
  95.1458931  66.1088467  35.9895754  95.0306129  65.9849310  36.9316959
  95.5479527  66.9737816  35.9091926  69.8442221  73.2948399  67.7793407
  69.3130684  74.0852737  67.8758764  70.5934238  73.4376049  68.3577394
  50.2953243  69.8090839  21.5121055  49.8242760  70.5415726  21.1148548
  51.2198210  70.0348377  21.4092493  34.8547149  33.6729932  29.0035892
  34.7843456  34.5541310  29.3708444  34.9101853  33.8113284  28.0580640
  77.3737049  51.3530684  27.0938063  76.8666935  50.5444908  27.1671081
  78.0998468  51.2368298  27.7065325  74.9341774  72.5274849  29.1748929
  75.6571007  72.2303247  29.7274423  74.2745161  72.8428555  29.7926474
  82.0687389  47.5988197   5.2999520  82.1682358  47.8058767   4.3707263
  81.7905140  46.6830397   5.3128242  24.7953105  81.5503407  17.9333806
  24.6020150  80.7628345  18.4420049  24.8187017  82.2543335  18.5815179
  58.5184956  93.1781101  12.8903651  58.8654995  92.3660564  13.2596815
  59.0696859  93.8658142  13.2638359  98.1942177  74.6281481  41.5661049
  97.8288174  74.1255331  42.2941828  97.5419712  74.5499611  40.8699036
  85.8867645  55.3629160  51.1916828  84.9687099  55.4783487  51.4367867
  86.3738155  55.5429935  51.9957876  70.5150223  62.6007700  44.8779631
  70.5396461  63.0176258  44.0166521  69.5876932  62.4178934  45.0291204
  67.8427029  69.5697689  38.9291263  67.7344227  68.6835432  39.2742467
  67.2674274  69.6010685  38.1647229  66.1958075  52.0040274  38.8380218
  66.2808514  52.1155024  39.7848988  65.5332661  52.6448631  38.5799599
  81.9935226  56.1779737  14.2491245  82.7802658  56.6259193  13.9382946
  82.3204041  55.3789997  14.6626616  66.4630508  66.3584614  29.6547246
  67.0290232  66.8073463  29.0267038  65.7194805  66.9496679  29.7722411
  66.4125347  44.7467375  21.7397380  66.6295958  43.8418245  21.9639134
  67.1728754  45.2532291  22.0253682  67.7932501  60.7200575   8.0387372
  68.5598469  60.1714039   8.2046890  68.0998230  61.6133690   8.1944412
  60.0851011  77.3570442  55.2943373  60.3912449  78.2631874  55.2566767
  59.8769522  77.2127295  56.2174177  95.3940010  65.0567627   2.5905022
  96.1039543  65.4008770   3.1325233  95.7980633  64.9017000   1.7367300
  89.9989796  72.0565605  55.2028799  89.9011326  71.4227581  55.9134817
  89.1876125  71.9805574  54.7007418  87.4506378  44.7961521  21.6837096
  87.0430851  45.6621218  21.6989279  88.0070877  44.8069811  20.9049416
  51.2918186  41.9738007   9.6184951  50.9324837  41.3782310  10.2760708
  51.2980461  42.8292084  10.0479972  69.3626213  68.3796120  66.3871336
  68.9225721  69.2190361  66.2531424  69.0690231  68.0904913  67.2511005
  69.0060806  54.1144228  44.4690800  68.6784220  54.9802399  44.2256975
  69.8638487  54.2837620  44.8586893  45.2838945  38.6140203  20.1462841
  45.0853205  38.4557748  19.2233753  46.0640764  38.0864716  20.3172851
  71.8748713  80.9057999  52.4814653  71.1183786  81.2405777  51.9999313
  71.5170383  80.2156448  53.0399179  83.7162304  63.0169249  11.1271918
  82.8332329  63.3818674  11.0692346  83.8226700  62.7930784  12.0517445
   7.7817941   6.7927575  87.2364330   7.0543134   7.0967472  86.6936684
   7.4959552   5.9401393  87.5644112 107.0748997  89.1911507  58.6418772
 106.1887550  88.8292599  58.6389017 107.3079109  89.2617130  57.7161551
  60.7455111  49.2831802  22.9066730  60.0912857  49.2030573  23.6007929
  61.4395237  48.6746883  23.1602693 102.1045876  71.1357450  60.9648180
 102.8795624  71.0417271  60.4109144 101.3730335  71.1739969  60.3487015
  62.9465437  93.3969212  41.1748362  63.8842821  93.5320759  41.0383844
  62.7097797  94.0287876  41.8537474  44.3871927  70.8667707   9.1645426
  44.2798042  71.1306953   8.2507360  44.5111656  71.6891670   9.6383852
  66.7450809  68.6326170  34.7476435  67.6746035  68.4528589  34.6065545
  66.3705111  68.6621094  33.8672686  87.5599289  55.9291410  38.4448552
  86.7366695  55.7170916  38.0049515  88.0316830  56.4781284  37.8185225
  83.0011368  53.6202097  36.4994168  82.6457214  54.2173052  35.8410931
  82.3087025  52.9733419  36.6347861  65.7095718  46.8364716  26.5810895
  66.5444994  46.3685226  26.5933633  65.9431124  47.7372074  26.3566661
  75.5578518  64.9031210  60.7898712  75.3334332  65.6749964  61.3095617
  74.7385168  64.6569443  60.3605461  90.3384972  62.3746920  27.6293111
  89.7336769  62.8740692  28.1779885  90.3536320  61.5020514  28.0223775
  79.6790361  70.5312490  67.9360628  79.3649578  70.9297943  68.7476969
  80.5753994  70.2597904  68.1337595  73.6621284  49.3387651  17.1581066
  73.8272285  48.3961630  17.1799362  73.0765724  49.4621277  16.4110208
  78.0451059  65.6429434  16.9717038  78.9688587  65.6203556  16.7219114
  77.8450584  64.7435236  17.2310507  87.4540710  40.2669954  16.8046832
  86.6803360  40.6964588  17.1695638  87.5788975  40.6828451  15.9516203
 100.2890491  58.2430983  27.1695662 100.2849579  57.2994995  27.3302865
 100.9116077  58.5920191  27.8074646  58.9854050  52.8242922   6.4818203
  58.0697298  52.9701042   6.2440968  59.2086458  51.9879198   6.0733104
  64.6494007  54.2574072  35.2125955  65.3733063  53.8154221  34.7689271
  65.0419044  55.0486612  35.5815053  83.0593777  64.0797234  31.2801313
  82.6109886  64.5147419  32.0053458  83.8189983  64.6339703  31.1011982
  79.7184420  54.1626740  18.9458466  80.0869083  55.0418425  18.8590860
  78.8782883  54.2972898  19.3843138  64.3755436  11.6423666  45.8374882
  65.2789879  11.3493502  45.7184696  63.8434696  10.8935285  45.5684757
  22.6356912   8.5592180  86.1745644  22.6625896   8.4033883  85.2305126
  23.0335140   9.4226414  86.2862301  57.4278402  47.4587870  18.8603437
  58.0999088  47.3894215  18.1823003  57.8767538  47.8647709  19.6018863
  84.6874809  61.1953449   1.7432176  84.7699261  61.8666840   2.4205226
  83.8292694  60.8013773   1.8996857  76.4211035  41.2466526   3.1966469
  75.7705021  40.8906698   2.5914821  76.6821527  40.4991579   3.7345487
  54.1156435  52.4042130  32.2065067  53.1665087  52.5241518  32.2379637
  54.3362617  52.0164919  33.0534029  80.6687927  28.2448864  39.2855787
  80.6195641  27.6181746  40.0074100  79.7674751  28.3207417  38.9723563
 100.4308987 102.5103664   1.6031623 100.7932186 101.8279266   1.0381459
 100.6699467 103.3305931   1.1715218  73.7377977  68.1182480  43.9744329
  74.1722107  67.3676348  44.3795204  74.3463802  68.4094381  43.2954121
  68.8224459  64.6961689  37.2656536  68.6888409  64.7563982  36.3197398
  68.1126690  65.2169657  37.6414394  91.5106773  53.0482864  34.0296197
  91.5253162  52.2791672  33.4599972  90.5893230  53.3059359  34.0605354
   5.8856928 105.5375195  91.5902710   6.0817742 106.2294960  90.9586525
   5.1519144 105.0604153  91.2027550  90.4273319  39.3798780  14.9205589
  91.3653564  39.5082378  15.0615156  90.1062489  40.2394533  14.6480322
  74.8165655  71.8945694  38.0321431  75.6145954  71.6917562  37.5440383
  74.1978168  71.2113476  37.7741003 102.3339367  26.0719609  18.9279234
 101.4997005  25.6168056  19.0424502 102.1806431  26.9465661  19.2854142
  26.8365240   0.3951375  88.3045197  26.1998105  -0.3006758  88.4678459
  26.9201350   0.8454014  89.1450596  36.1735868  32.4368048  18.4767997
  36.1588359  31.9472313  17.6544058  35.3799963  32.9714155  18.4515500
  77.8111362  64.8220444  37.5354290  78.0594587  65.6332588  37.0921516
  78.2416868  64.8739243  38.3887553  58.6705923  52.0292139  38.6483598
  58.1941080  51.2086630  38.7743998  58.1204033  52.6921797  39.0654993
  86.6961765  53.2629108   4.0939417  86.3854694  54.0913248   4.4592115
  85.9204578  52.8728962   3.6909747 102.6337719  83.6519432  37.6062226
 103.5524368  83.3831978  37.5988030 102.5858212  84.3588543  36.9626331
  35.8422565  74.0009737  18.3564401  36.2374878  73.3509874  18.9374244
  35.0797939  73.5576248  17.9845190  63.5945749  14.6920097  61.9394636
  63.6477757  15.0618541  61.0582066  64.1349936  15.2721846  62.4757242
 101.2514496  61.9667864  30.9022617 100.6581974  62.6792717  31.1402488
 100.9846973  61.7185402  30.0171375   9.1403186  94.6816254  22.3942876
   8.9001042  94.3250179  21.5390897   9.7070378  94.0143967  22.7814102
  57.8208065  11.1126935  84.3637943  57.1715021  11.4918363  84.9561501
  58.0062151  11.8093526  83.7340927  94.6942139  53.4299231  58.1565475
  94.1133499  52.6825523  58.2989216  94.2494583  54.1632986  58.5815001
  55.0061464  70.8731270  30.5453539  55.4954863  71.5111160  30.0259781
  54.7030020  71.3666725  31.3074207  56.8406773   2.6949915  76.3821554
  56.6582918   2.7347004  77.3209810  57.1012020   1.7870945  76.2269688
  87.0926762  55.7908058   5.6213003  86.8257618  56.6335440   5.2541745
  88.0436420  55.8575487   5.7076007 103.1680965  73.6318350  28.0145955
 103.0593681  72.8855276  28.6040378 104.0953159  73.6165762  27.7773809
  84.0270233  64.3410063  34.5524621  84.6540833  64.2759895  35.2727365
  83.8787556  65.2808714  34.4480896  65.4838848  41.0514402  31.9076800
  64.9930000  41.3395357  31.1380911  65.7784176  41.8627930  32.3214388
   0.6729202  88.4726334  22.5862980   0.0548232  87.8736115  23.0050611
   1.5351561  88.1253910  22.8147721  89.8600101  96.1287403  52.9240036
  90.3260803  95.3158379  52.7285337  89.2708206  95.9000874  53.6428928
  19.9080908  35.8862472  18.2317054  20.7807875  35.9836769  18.6126804
  20.0693583  35.7210517  17.3027623  53.0026722  46.9241667  92.4205399
  53.7643576  47.2710705  92.8850079  53.2579279  46.9378853  91.4980984
  96.1231995  67.9844475  14.8113513  97.0674229  67.8274727  14.8061895
  95.7349300  67.1095276  14.8103893  86.7024517  86.2817478  53.7395000
  87.0467281  86.6491890  54.5535612  86.4853668  87.0455265  53.2049417
  53.6746311  80.0713634  31.2816381  52.8528023  80.5272293  31.4633036
  53.8626671  80.2727413  30.3649497  17.8253520  94.1343212  31.3477254
  17.3482490  94.8786545  31.7145634  17.7320921  93.4433365  32.0035219
  88.7036514  80.4621792  29.2871714  89.6321392  80.4350662  29.5182848
  88.3078098  79.7597504  29.8030496  77.6720524  95.1272011   0.6204388
  78.5414410  94.7295666   0.5726774  77.5731182  95.5875492  -0.2129404
 101.5248394  86.3684654  79.0786314 102.0930767  85.7486820  78.6212397
 100.7756042  86.4828968  78.4940100  73.8952351  71.1558676  32.6539612
  74.0838337  72.0316648  32.9910660  72.9515266  71.1589527  32.4938297
  99.3967152  80.1373196  28.5051441  98.9074039  79.8978424  29.2922044
  99.6896076  81.0338116  28.6687207  80.1562786  56.2609768  37.5206399
  79.7981405  56.6219997  38.3315849  81.1047935  56.2816238  37.6476312
  76.0558510  53.0174541  33.7651157  75.7456875  53.4387445  34.5667052
  76.8169403  53.5347509  33.5017204  80.0166988  85.8850765   0.4587457
  79.0792751  85.9696388   0.6328727  80.0769615  85.1888466  -0.1953630
   6.2352479   9.8213124  24.5031881   5.4146719   9.9513769  24.9785519
   6.5277237  10.7059205  24.2837381  72.7552271  63.2820272  46.6192865
  73.2782459  63.2218838  45.8198690  71.8685150  63.0499458  46.3433981
  73.0613947  86.3869667  74.2711210  73.9453745  86.5775204  73.9572763
  72.6472092  87.2456932  74.3563986   1.9745037  78.3299255  15.1021051
   1.3364156  77.6713800  14.8275220   2.0586801  78.9115334  14.3465412
  54.5861769  46.1962605   2.8470632  55.0489378  46.6595554   2.1488956
  55.0074339  46.4950943   3.6529616  79.3005133  67.1701145  71.7481899
  78.5492420  67.7632618  71.7472982  80.0601864  67.7459192  71.8352270
  93.5554886  67.2399712  49.1083431  92.6275063  67.0147181  49.1741419
  93.6790943  67.4803495  48.1900978  85.7827854  58.2682180  64.0180349
  84.9341488  58.7104273  63.9957571  85.6200695  57.4170351  63.6115313
  84.7243977  74.0007830  17.4472785  84.3504047  73.3949423  16.8074965
  84.1569614  74.7706699  17.4082792   1.3995725  70.4434586  57.7998734
   0.9832506  71.0708809  57.2089052   2.3382203  70.5849695  57.6768064
  90.2158165  79.0152550  32.4267626  90.8358479  79.3715239  31.7904687
  90.6759071  79.0672827  33.2645249  10.5226994 106.5823746  24.4689965
  10.0398481 107.4088478  24.4738674  10.2923715 106.1753368  23.6338305
  79.6975422  61.4675140  39.6948075  79.8565435  61.1585140  38.8029170
  79.0168953  62.1337748  39.5996857 104.3690872   2.3251654  51.5459347
 103.4425735   2.4959582  51.7151403 104.6735287   3.1009078  51.0750103
  62.7662992  29.0922546  25.2104712  63.4106874  29.5509434  24.6713901
  62.0142126  29.6836329  25.2399349  43.1742191  84.0006351  18.6438191
  42.8705692  84.5377064  17.9119885  42.8247833  84.4358349  19.4214618
  83.7416935  58.5124683  44.3419790  83.3291626  58.3647346  45.1929951
  83.0118752  58.5373688  43.7231255 110.4259968 103.4953880  25.7808137
 111.2572098 103.9137745  25.5566144 110.6183147 102.9878521  26.5692616
  83.3665180  69.9969101  30.7054949  82.9833889  69.9683809  29.8287797
  83.3933640  70.9282255  30.9249568  84.4814682  59.1368866  56.6787052
  84.5092106  59.3742466  57.6055956  83.6799335  59.5447111  56.3509130
  85.5927277  64.6814775   6.1249816  84.7732544  65.1386690   5.9361100
  85.6793213  64.7285604   7.0770937  93.2476997  53.6607933  45.7349968
  93.1384945  52.7194786  45.5999708  93.1441307  53.7809610  46.6789579
  42.8368139  90.7633209  69.8366594  43.7556601  90.7453156  70.1042986
  42.6373386  89.8565292  69.6038961  77.0530224  62.4933147  38.6713624
  77.4820280  63.1326580  38.1026578  76.1236811  62.5644875  38.4534502
  66.7865705  79.7678900  27.0072985  67.0648289  79.3008852  27.7951527
  67.1579456  79.2614269  26.2849355  58.6406565  86.7382908  47.4875069
  57.9719782  86.0566711  47.5544977  59.0788221  86.7284298  48.3384752
  81.8231010  87.3267555  75.9047890  80.9336567  87.4708748  75.5817699
  81.7045498  86.8661594  76.7354679 110.6654453  69.6774483  34.3864346
 110.7421017  69.1563225  33.5871959 111.0724258  69.1377831  35.0641942
 101.2594509  54.6354580   9.2199481 100.3778172  55.0081968   9.2258149
 101.1376095  53.7278223   9.4984812  67.3877287  82.1315861  21.7706561
  66.7510366  82.5313854  21.1781931  67.2156096  81.1920357  21.7085671
  78.1247091  96.0773182  19.3655992  78.2117605  95.5703545  20.1728415
  77.7693653  95.4562092  18.7298465  73.8538218  91.1703587  49.1687250
  74.5850468  90.8363533  49.6883249  73.8930607  92.1199417  49.2826700
  70.2242041  85.2160549  24.2364001  69.4502115  85.2783203  24.7961283
  69.8986483  84.8403263  23.4184289  98.9708805  79.1973257  15.5247903
  99.1221905  79.9958944  16.0303831  98.4312534  79.4799519  14.7864401
  70.1892090  51.4263153  84.4258022  70.8601904  51.1171961  85.0344563
  69.4593668  50.8185816  84.5450592  64.4126987  60.0796604   2.3809712
  63.6132097  59.6667433   2.7073851  64.1105366  60.8789539   1.9496246
 111.2463474  96.5280151  39.3108153 111.8923092  95.9135437  38.9624071
 111.1865520  96.3107681  40.2411175  78.7193060  64.5653582  42.6113701
  78.9755726  64.9106264  41.7561817  79.2761755  65.0318670  43.2346678
 105.5786037  79.2827415  47.2256708 106.2942505  78.7155676  46.9386148
 105.6687450  79.3187380  48.1779385  85.7996163  54.2894245  -0.0002089
  84.9942193  54.1961028  -0.5089846  85.6533608  55.0663712   0.5394182
  56.3499355 100.5948639  28.9159536  55.7327080  99.8897648  29.1111183
  57.0120049 100.1861382  28.3584309  82.3825455  59.7348785  25.9738827
  82.2159767  59.1029978  25.2744436  82.0636654  59.3039656  26.7668915
  88.6079216  85.7506657   7.7716374  88.9361286  86.4412785   8.3474505
  88.8272381  84.9365902   8.2248676  79.2393303  64.6312761  28.3899689
  80.0390148  64.1175461  28.5031676  79.0093040  64.9144745  29.2749095
  94.5742130  56.8776751  63.1705809  95.0639057  57.4117947  62.5451660
  94.5165920  56.0165453  62.7566099  85.7091331  65.5118179  45.5967045
  86.3782787  66.0491467  45.1727295  86.1914444  64.7658014  45.9531736
   3.0646205  65.8439112  19.7883868   3.4493586  65.5217075  18.9732838
   3.2520622  65.1580524  20.4292417  82.3250484  87.5978851  22.2420573
  81.4465809  87.2914028  22.4669814  82.7982616  86.8048382  21.9903111
  87.7713490  50.7628536  33.7332296  87.7875900  49.8181200  33.8863373
  88.6695385  50.9805822  33.4840631  88.7190628  93.3983707  35.9293151
  88.6618423  94.1844082  35.3860760  88.8908672  92.6902390  35.3086209
  86.1313725  53.0238247  18.3905697  87.0734215  53.0393219  18.2216597
  85.9402370  53.8855314  18.7609243  83.0713463  76.8843555  77.5837040
  83.1985188  77.8096390  77.3741627  82.9520702  76.8680191  78.5333061
  98.9861488  81.9965172  34.8511147  99.4836712  82.1904564  35.6455231
  99.6530151  81.8609715  34.1779566  67.8680897  66.7969656  39.5993543
  67.0767784  66.6711378  39.0756917  68.3817387  66.0028505  39.4517899
 112.6316547  70.6210661  63.7375164 113.5397816  70.6911182  64.0318489
 112.6555920  69.9650192  63.0409098  93.2575417  72.8085089  44.2033005
  92.6059341  72.7798891  44.9038887  93.7714100  73.5951090  44.3861294
  72.8514719  70.6205559  48.6264706  73.1907701  69.9725437  49.2438698
  73.0618525  70.2627325  47.7639532  68.1227207  80.6683350  38.2063580
  68.3546972  80.7168865  37.2789621  67.3527527  80.1002121  38.2312274
 104.0243816  80.4069519  32.4421406 104.7210026  79.9663639  31.9554853
 103.2737350  79.8170900  32.3727536  79.0245867  59.6109390  42.5221968
  78.6868382  59.1226053  41.7714071  79.5684290  60.2976179  42.1362734
  92.3852444  66.4818478  43.7400103  91.7036438  66.2315130  44.3636894
  92.3567390  67.4385071  43.7252474   1.8872425  96.9829941  45.0849199
   2.5356787  97.6017952  44.7489977   2.3828369  96.1797619  45.2444220
  96.9151878  60.7084036  23.0481863  96.2676430  60.6684065  23.7519765
  97.7509880  60.8308554  23.4983921  95.7410622  84.5865345  37.3512602
  95.7174015  84.4985771  36.3984036  95.4668236  83.7295628  37.6777792
  68.3859396  56.5718222  29.4614387  67.8123999  56.9038582  28.7707615
  69.1450357  57.1546364  29.4432044  76.4090872  49.5171213  19.4774258
  76.6023397  49.5833397  18.5422778  76.6546488  48.6216450  19.7099233
  86.1594391  78.3740282  38.7368894  86.6382504  77.7402353  38.2027745
  86.7357635  78.5430288  39.4822264  92.4423409  91.0063648  61.4596844
  92.0710564  91.8581486  61.6895628  91.7720318  90.5915737  60.9166622
  77.1025610  67.8683329  38.8201141  77.0732641  68.2954264  37.9639792
  77.5479031  68.4981728  39.3868637  88.9350891  81.0795212  75.0206375
  88.7526226  80.1749992  75.2751732  88.0799198  81.4391422  74.7848558
  44.5148087  84.0108776  42.1730900  45.2407122  84.0827560  42.7928686
  44.9344873  84.0004253  41.3128614  48.5288668  71.9645071  20.8876276
  48.2112789  71.4312935  21.6163588  47.8919077  72.6753712  20.8155751
  71.9533539  75.2047539  39.7948217  72.2746038  76.1061907  39.8157597
  72.6121473  74.7273588  39.2905211 105.0696182  79.0021992  30.2632213
 104.6900654  79.3581390  29.4598055 104.8791790  78.0649853  30.2233338
   9.0843409  71.2496901  14.2263210   8.3198237  71.7725229  14.4679558
   9.7682929  71.5302944  14.8343515  79.4749498  72.4761868  37.0988464
  79.5041561  71.5436506  36.8849397  78.8064957  72.5447321  37.7805352
  58.4140110  75.4871178  46.8507910  58.3360147  76.1494637  47.5374126
  58.9687538  75.8953619  46.1860943  85.0611401  81.8173027  29.2062974
  85.7313442  82.3899460  28.8332701  84.8075294  81.2430573  28.4836984
  70.4235601  44.3923140  35.8468556  69.5877457  43.9345789  35.7567430
  70.4212809  44.7203016  36.7461061  59.4539928  72.6589966  27.8476310
  59.3188810  71.7937851  27.4611211  59.0540648  72.5988674  28.7151980
  60.5775833  86.9945431  40.2685022  61.1198664  87.4426937  39.6194077
  60.3712320  86.1506367  39.8666620 110.9160042  67.1469736  16.4675617
 111.2139130  66.3399887  16.0477352 110.0354195  67.2870827  16.1194658
  85.9449863  91.7365646  14.2481887  85.1572132  92.1802235  13.9338660
  85.6164932  91.0338974  14.8090649  60.3956223  85.2172375  35.8008981
  59.8429346  85.8789730  36.2166810  60.0924015  84.3868637  36.1680055
  92.5502396  72.7935696  71.1021328  93.1510830  73.3421850  71.6063499
  93.0077648  72.6331186  70.2768135  97.8572559  85.8276176  33.6092567
  97.6558304  84.8933506  33.6622286  97.0885849  86.2598324  33.9814973
  80.6403351  68.4870815  47.5880003  81.2040520  68.5380220  46.8160868
  80.9957981  67.7581692  48.0964947  84.8791218  85.5371094  26.5986586
  84.6684074  86.1786556  25.9202361  85.3417587  86.0402966  27.2687340
  30.9503818  98.0219650  82.2060490  31.7957926  97.8819752  81.7795372
  30.3311372  98.1225872  81.4831066  90.9450245  55.3912926  55.9259462
  91.5270805  56.1178923  56.1484098  90.5030632  55.1781702  56.7478228
  88.1756783  71.7317677  40.6199121  87.5951385  72.3539448  41.0581970
  88.4009457  71.0954189  41.2985516 105.0194836  82.5814629  29.8595428
 104.8374844  83.2224369  29.1723275 105.1271820  81.7531586  29.3920612
  74.8587847  81.0162544  70.1037169  74.5393133  81.8482018  70.4530478
  74.2025423  80.3745842  70.3754473  75.1966047  79.3713045  32.1415997
  74.4191170  79.7795582  31.7607164  75.9065914  79.9845123  31.9515181
  82.8981876  84.0026474  42.2341347  82.1469498  83.6836243  42.7342319
  82.6832199  83.8001919  41.3236237  61.2336588  98.1298447  16.5524507
  61.0130835  98.8531685  17.1392846  62.1223164  97.8791618  16.8047881
   0.0734802  88.4049892  34.4960785   0.9726992  88.3450794  34.8186445
   0.0850533  87.9303646  33.6649179  74.8505545  96.6510582  36.9177485
  75.1737785  97.4987221  36.6124082  73.9304209  96.6365814  36.6543627
  92.5771523  83.1264877  29.0840912  93.2072163  83.8139343  29.3001127
  92.9157448  82.7357960  28.2785177  67.1015549  81.8556309   7.7253795
  67.7270174  82.3194504   8.2820743  66.2535810  82.0014191   8.1448120
  28.1837821  25.3694749  74.8738289  29.0178633  25.1448298  75.2862263
  28.2953787  25.1201940  73.9564180  89.8530865  46.9039392  28.9354420
  89.4490433  47.7702999  28.8864017  89.1189098  46.2932301  28.8702083
  49.7346306  87.6085567  57.6318455  49.0689945  87.2527122  58.2205200
  49.2430687  88.1486034  57.0130205  63.2964516  39.7041035  28.8709450
  63.8210297  40.4836941  29.0533805  62.4861908  40.0440836  28.4913087
  85.8355999  91.6819954  42.6219320  86.5645027  91.0706902  42.7279615
  85.4578686  91.7586040  43.4981060  82.7209282  68.5940790  53.6393452
  82.4797535  67.7327919  53.9803028  82.2560883  68.6602211  52.8052139
  82.9355621  94.1089821  76.2387133  83.8918781  94.0698719  76.2514353
  82.6791668  93.4816360  75.5627441 110.7483006   2.1691312  54.6359491
 110.9092808   1.6439104  53.8520765 110.8734417   1.5590869  55.3628731
  86.1537743  64.6384001  52.0468426  85.5215359  63.9273548  51.9423676
  86.3310719  64.9343729  51.1539841  63.9610958  57.1853542  37.7640986
  64.1362810  56.4735460  38.3796215  63.1001806  56.9802189  37.3994350
  85.8301830 104.8162365  23.5354447  86.3319683 105.6281376  23.6079025
  86.4692307 104.1646671  23.2468057 108.6992550  60.9322023  25.6159282
 108.5128212  61.3387966  26.4621878 108.3327007  61.5389729  24.9727368
  80.7509518  75.6001520  77.2592163  80.6499863  75.1273298  78.0853367
  81.5080833  76.1687136  77.3996496  56.2761879  62.4031782  24.8569727
  55.9943199  63.1750345  24.3660378  56.3228035  62.7010155  25.7654619
 107.7837563  73.7034321  30.1645327 107.6892281  74.6542978  30.2206206
 107.3518276  73.3729219  30.9522080  50.9400940  49.3788862  23.3738852
  50.6372547  49.2219210  24.2682481  50.1367807  49.4791317  22.8631306
  11.4786351  37.1657181  91.1271191  10.8915520  37.6592112  91.6998577
  12.0285022  37.8326058  90.7158566  50.1081610  15.3857207  26.3893604
  49.3202543  15.7653058  26.0003281  50.7011604  16.1285496  26.5024590
 100.7049084  67.3299551  26.3330579  99.9405003  67.5340223  26.8718243
 101.1570168  68.1675529  26.2317300  50.0293493  60.7053709  27.0094633
  49.3193722  61.1622763  27.4604583  50.2971363  60.0178289  27.6192284
 104.9366188  77.3862791  24.2256117 104.8540688  76.4425993  24.0881777
 105.6367016  77.6546431  23.6305451  62.2778702  73.6017799  31.4318490
  61.8843174  72.7590656  31.6580796  62.9789352  73.3817434  30.8183980
  53.3027840  63.6579370  24.5858312  53.2925129  64.0961313  25.4367805
  54.1365099  63.9167404  24.1932058  94.0763664  54.3379068  43.0667877
  93.6777973  53.8105154  43.7590551  94.7200394  53.7559080  42.6628256
 101.5628433  59.8071384   4.1139245 100.6598949  59.4997406   4.0337566
 101.9471741  59.2479515   4.7890779  89.7410393  55.8796072  44.2948961
  89.6791077  55.2281237  44.9934387  90.5305958  56.3792610  44.5026922
  72.7338934  33.2329917  39.5113397  73.2763290  32.8518224  38.8208985
  73.2493639  33.9685106  39.8423028  84.4670010  55.0695658  31.3736844
  85.1104641  54.4063139  31.1241174  84.6426964  55.8060408  30.7880497
 111.8944168  27.9678392  18.4023225 112.2305775  28.5727668  17.7410424
 111.1390686  27.5530720  17.9856110  49.7586107 100.2658463  58.2587147
  49.0946245  99.7331142  58.6963844  50.0780678 100.8576393  58.9398623
  74.5812607  50.1320267  13.8563251  74.1012621  50.8389330  13.4249079
  73.9336538  49.4360447  13.9678586  71.8226051  87.0788383  41.3902807
  71.8649435  86.8699455  40.4571152  71.4127779  87.9432106  41.4238739
  72.7183199  75.7630539   1.4625533  72.5562382  74.8887205   1.1082861
  72.4085808  76.3590193   0.7805593  77.9692984  79.6832037  73.7188530
  78.1606913  78.9529324  74.3073368  77.0283222  79.8291016  73.8163567
  70.9784555  86.8484974  45.7689619  71.5711212  87.1313667  45.0725651
  71.1364508  85.9079552  45.8505917  70.1192284  83.4657478  76.1867428
  69.1813993  83.2748032  76.1708879  70.1700354  84.4205570  76.1422777
  62.4174738  61.1563778  13.8726604  62.8175402  61.3135433  14.7279263
  63.0623150  60.6303978  13.3996272   2.0006332  95.6508255  38.3035922
   2.1153708  96.4858055  37.8498530   1.5883183  95.0803947  37.6548767
  77.0464659  76.4907122  24.9084902  77.4742317  77.1679401  24.3844581
  77.5063229  75.6834412  24.6780920  39.8354721  84.8148727  37.7353001
  39.8470998  84.2193413  36.9860077  38.9666915  84.6988583  38.1199980
  72.2504759  56.9905233  30.8357191  71.8776703  56.1089659  30.8460116
  71.5659761  57.5355244  30.4475570  82.3917103  61.5698671  34.1367030
  83.0945301  62.2195864  34.1491032  82.1017838  61.5480375  33.2247305
  36.8028903  57.7425480  36.0713077  37.1850991  57.9605293  35.2212286
  36.8725061  58.5506916  36.5795302  85.7001019  61.5187407  33.3743119
  84.9782848  61.1260271  32.8834081  86.4837837  61.0865784  33.0347323
  68.2802153  72.4219370  28.9886975  68.5530519  71.5175772  28.8340020
  68.0402136  72.4445772  29.9150443  91.9649029  66.4589787  15.5935919
  91.3886070  66.8043756  16.2753665  92.8486824  66.6510916  15.9070468
  41.9966173  80.9696007  13.5238242  41.9373083  80.4745770  14.3409312
  42.6622820  81.6357613  13.6951435   6.7996937  62.7822256  85.5995274
   7.1384656  63.0553389  84.7469521   6.4153385  61.9202995  85.4395962
 108.1927586  94.3057442  46.9261074 108.6296558  94.3258190  47.7775478
 107.3598099  93.8652611  47.0946407  77.8535938  72.7015734  32.3478746
  78.2233906  72.0661974  31.7348695  77.3526669  72.1721792  32.9683948
  94.7628689  86.4185429  45.8974743  95.2569485  87.1947861  46.1612177
  95.0733280  86.2262249  45.0126791  93.9408588 106.3914108  36.5117121
  93.7281132 106.3394070  37.4435210  93.6663628 105.5462837  36.1558390
  37.9884696  36.4473367  13.0475497  37.2346115  36.8517923  13.4769022
  37.6451731  35.6344914  12.6765251 107.7048302  40.0874519  10.9621704
 107.1018505  40.7755661  11.2434983 107.8967571  40.2962255  10.0479424
  90.0567245  67.8635406  16.9659758  89.3090057  67.4423313  16.5420437
  89.6652317  68.4813070  17.5834918   2.7302706  73.8760805  44.2951632
   2.8181133  74.8066139  44.0887165   2.5286412  73.8562870  45.2306747
  16.5709147   0.1663849  22.9896712  16.1936888  -0.6709793  23.2594180
  15.8256564   0.7663319  22.9599667  43.2361126  78.1614065  37.6913357
  43.1974792  77.8410053  38.5924911  43.3273125  79.1102839  37.7782083
  89.8045540  46.7502737  19.5629466  90.5720711  46.1783218  19.5675910
  89.3200493  46.4945745  18.7780190  71.3092899  89.8111820  40.2595139
  71.8934107  90.5646896  40.3447151  70.8824110  89.9337196  39.4115782
  85.4473019  50.9976196  28.2836914  86.2571812  50.4879141  28.3065271
  84.9045849  50.5558109  27.6306295 111.5337086  74.3446302  53.8491488
 111.7660141  73.4773397  54.1809225 111.3252449  74.8529720  54.6329594
  80.4067230  95.2761364   8.7618870  80.1953125  94.5511246   8.1737643
  79.9436331  95.0689507   9.5735848  56.1464977 100.1815605  53.5660934
  55.4253817  99.5631790  53.4485245  55.8560181 100.7564163  54.2741919
  79.1098261  56.6440821   5.7520419  78.7962008  55.7492590   5.8830482
  78.4369516  57.0568657   5.2106750  77.7179861  77.5152159  43.4209776
  78.4361506  78.1479549  43.4098387  77.7561188  77.0944834  42.5620461
   8.4804010  67.0566511  23.9975142   7.5658840  66.7760563  23.9635229
   8.5782027  67.4498940  24.8647094  73.3663321  46.4078808  32.7520347
  73.9401102  46.5410614  33.5065365  72.9130459  45.5855846  32.9380345
  82.8735161  60.9763527  53.4864569  82.4235821  61.6289568  54.0230131
  82.4794292  60.1425648  53.7428236  52.0860434  81.9932079  53.1514883
  52.5425291  82.6051521  53.7288809  52.4216604  82.1928024  52.2775555
  50.6672001  19.6459115  86.0260773  50.8500957  20.5704188  85.8585453
  50.3522968  19.3082833  85.1875782 100.2385426  54.6830273  24.4515085
 100.2238655  53.7390757  24.2934680  99.6393394  54.8121262  25.1867104
 111.7272282  66.8021774  29.7961068 112.1362209  67.3724461  29.1451454
 112.3597336  66.7655754  30.5136228   3.8569793  41.4485693  23.4485674
   3.6812955  41.2492657  24.3681574   3.0173665  41.7539787  23.1050467
 101.7966557  84.3994999  63.4923220 101.3503456  83.5623646  63.6197710
 101.1973572  84.9099731  62.9478073  87.6028919  79.4101095  40.9069586
  88.4495449  79.3550253  41.3501072  87.2532749  80.2634048  41.1636496
  15.3114986  89.6126652  92.8499031  15.0904977  90.4980755  93.1387711
  14.6948826  89.4312286  92.1406174  83.6841297  74.0232229  21.6672707
  83.2845211  73.9429712  20.8011866  84.2007351  74.8276043  21.6190863
  14.6120298  44.7658634  30.5018401  15.3867614  45.3063297  30.6564879
  14.6972513  44.4797421  29.5923877  86.5308094  56.6390419  53.7218142
  87.4610901  56.6328335  53.9471436  86.3242435  57.5632715  53.5826683
  78.4387445  82.0876980  44.6048498  77.7916288  82.6322460  44.1565943
  77.9954004  81.2499714  44.7386265  51.0180426  16.9541705  82.4627304
  50.1999092  16.4699602  82.5742245  51.2762690  16.7827904  81.5570927
  71.5712452  81.4498329  29.8937106  72.4734545  81.4448166  30.2134323
  71.6486502  81.2765884  28.9555073  89.5865345  80.8677578  22.8382635
  90.1331902  80.8644199  22.0525241  89.2723274  81.7692566  22.9076123
  86.0429096  76.5966940  27.8354049  86.7591381  76.4016914  27.2310686
  85.6783867  75.7403517  28.0590677  64.6028996  99.5952702  62.4596071
  64.1777086  98.7376976  62.4628973  64.2995644 100.0099087  61.6519594
  42.8279972  95.9700584  13.5942209  43.4239626  96.5031815  14.1203701
  42.1686888  95.6629181  14.2164874  90.9143639  83.6819744  44.0517092
  90.8220291  84.6092129  43.8327551  90.1815605  83.5007381  44.6402597
   9.9269366  71.2165308  29.6698833  10.2585781  72.0963860  29.8490429
   9.6387708  71.2503242  28.7577152  85.5896950  61.0286856  46.6168499
  84.6694946  60.9320450  46.8620443  85.5648518  61.3592052  45.7188702
  94.9930573 107.0940208  11.0177267  94.4054127 107.1040726  10.2622139
  94.4943523 106.6493797  11.7031622  96.4412689  99.4830990  68.2255554
  96.4427662  99.1991997  67.3114300  97.3572826  99.4225788  68.4966469
  97.9153061  86.9449234  64.5456219  98.6609268  87.5052834  64.7607660
  97.4639034  87.4075127  63.8395929   9.2005062  17.4954951  30.4132748
   8.6165726  17.7597809  29.7023559   8.6133015  17.1870983  31.1034298
 113.2702446  95.6659889  36.7557287 112.9293251  95.0712395  37.4237657
 113.8196373  95.1128006  36.2004066 103.3393669  42.9589319  42.9194355
 103.9870644  42.4384689  42.4442053 102.5383854  42.8749943  42.4021244
  61.4147377  89.2363930  27.6514220  61.8295336  89.0545845  28.4946990
  60.8804798  88.4619236  27.4753690 110.6705666  83.1272793  60.1686668
 110.0363827  83.4818268  60.7918358 111.1539650  83.8925362  59.8573208
  89.4755173  81.6497135  87.2187519  88.9464760  81.3107204  87.9408455
  90.3628635  81.6986465  87.5743484  96.8293381  91.5477180  14.3567443
  95.8950710  91.7559624  14.3538058  97.2401905  92.2836781  13.9030898
 105.8880806  54.0120840  44.4628429 105.3533363  54.6656895  44.9134970
 106.0395908  54.3842793  43.5940838  24.9952769  56.9140673  60.0019121
  25.3485155  56.8492937  60.8891869  24.1571212  56.4536476  60.0435925
  57.3111773  89.2518139  26.7964005  57.8231955  89.6163845  26.0744905
  57.7113581  89.6203995  27.5839472  85.6270409  95.9996700  58.9207697
  85.2378845  96.6511059  59.5042229  85.9088421  95.2943516  59.5032978
  85.9852123  89.0433884  56.1713648  86.8801212  89.0397072  55.8317137
  85.9021282  89.8857403  56.6183186  66.7451620  92.2933006  21.4526772
  66.7008781  93.2150936  21.7067790  67.6737881  92.0708942  21.5191007
  60.7816076  80.0682831  54.5300245  59.8747158  80.2531910  54.2859316
  61.1308146  79.5677280  53.7926435  84.1289616  76.5658331   6.9069779
  84.6326447  76.4568329   7.7136093  84.5286942  77.3208141   6.4751768
 111.2279415  94.1549397  51.8211460 111.5154266  95.0679302  51.8149137
 110.4306602  94.1512680  51.2914610  41.5690041 106.3491344  86.6087341
  41.9288063 106.9548512  85.9607506  40.6585217 106.2248230  86.3407898
  38.7128282  60.6478119  20.1724672  38.6946225  61.0633230  19.3103480
  39.0338564  61.3310957  20.7609367  94.5251942  86.4424133  28.0764961
  95.3890133  86.5351200  27.6746893  94.4264698  87.2269917  28.6158633
  76.4600897 104.3544006  27.4678826  76.6102839 104.9029446  26.6979694
  77.3377705 104.1353607  27.7808166  86.3033295  89.1637325  21.1384726
  86.9461823  89.8410797  21.3486505  85.5421925  89.3805695  21.6768789
  80.5535507  60.2178574  22.3534107  80.9657764  60.3845406  21.5057564
  79.6163464  60.3210545  22.1883941  51.0814047  32.6648164  91.5401936
  51.4441872  33.4704876  91.1720657  50.2876472  32.9456997  91.9954681
  80.8437157  98.6070061  86.4599609  81.2988186  99.3075848  86.9271851
  79.9345398  98.9024925  86.4118004  56.9210291  32.1931171  87.7828503
  57.3806953  31.8597913  87.0122433  56.0054207  32.2499752  87.5096035
  69.4260263  61.1510897  29.0276146  69.3641138  61.2352562  28.0761337
  70.1046133  61.7773104  29.2798018 109.8905945  79.2256784  34.7900939
 110.3160000  79.8354053  35.3929949 110.2707577  78.3735037  35.0034022
   1.2674880  84.8061943  55.1846361   1.9905555  84.1917038  55.3103781
   1.6790053  85.5882645  54.8168707 113.8546990  65.4570961  56.6316652
 114.2057497  64.9446869  55.9033585 112.9367916  65.6019402  56.4021063
  59.2321157  80.8475876  20.7774043  59.9684906  80.8896732  21.3874960
  58.7187672  80.0957489  21.0731006   0.5266958  61.4593983  16.2721813
   1.1800373  61.7781353  16.8949032  -0.1804907  62.1029377  16.3165855
  84.2733765  78.6521482   9.2952245  84.9488735  79.3269110   9.2272061
  83.9830112  78.6949015  10.2063203   7.0547765  14.6219599  41.1629248
   7.1636611  15.3150201  41.8141079   6.3701004  14.0591121  41.5243816
  67.8495407  62.2161102  51.3255358  68.1426239  61.5726042  51.9706964
  66.9055653  62.2854233  51.4681387  73.8453722  71.0595131  27.0419168
  74.2773104  71.4793539  27.7858186  73.4415436  71.7816782  26.5606356
  88.8222504  86.1329269  27.3186994  88.5951424  86.9892788  27.6810670
  89.7169495  85.9749794  27.6200271  95.6699181  59.8649359  26.6125679
  95.1115990  59.1107988  26.4233851  96.5577316  59.5576239  26.4293265
  86.2239552  76.9773340  10.4268956  86.9335747  76.7597628   9.8224723
  85.5727482  77.4197245   9.8824137   1.0081561  88.6857128  52.6989555
   0.6252472  89.5401001  52.8980207   1.5026501  88.8270855  51.8916655
  52.2030687  88.6225700  45.2537107  51.7571831  88.4333897  46.0793161
  53.1000042  88.3176041  45.3905487 110.8019352  92.3869324  25.0256133
 110.3632450  93.2161331  25.2158976 110.1636124  91.7167187  25.2697468
 107.2657585  62.6476908  68.4618473 107.6964188  62.1893358  67.7402639
 107.3286247  63.5739374  68.2287216  44.2550373  13.1978965  17.1891558
  44.4724941  12.4735546  16.6024089  43.7220383  12.7978241  17.8762424
  83.9209652  76.1602020  36.3691354  83.6838436  75.3087330  36.7365646
  84.8422241  76.0680676  36.1261940 111.2732029  91.2689304  57.0298433
 110.3454971  91.0649967  57.1481800 111.3015461  92.2230816  56.9590139
  27.2617126   4.6894047  57.7570677  28.1497073   4.5995241  58.1029272
  26.7541170   5.0405425  58.4886980  24.0234327  81.2650871  35.1696420
  23.6326289  80.5934429  35.7285595  24.5913529  80.7786942  34.5720506
  61.5278864  20.6647873  63.4521961  61.7822790  19.8277807  63.0636835
  62.3290014  21.1884928  63.4385824  29.6431351   8.6898124  39.5939493
  29.4825530   7.9035193  40.1156664  30.5360699   8.5817534  39.2664957
 104.8888779   6.7499018  22.6630211 105.4804611   7.1766090  22.0431972
 104.1916180   6.3864321  22.1171808   2.2305344  80.4146004  29.4118428
   2.3516497  81.3445377  29.2200494   3.0826116  80.1241970  29.7372055
 104.8469353  15.3951991  73.0924320 104.8883724  15.1164854  72.1776485
 105.7291031  15.7119691  73.2865047  45.9907055  15.3777564  82.6245594
  45.4907656  14.5959830  82.3897743  45.8160830  15.9958303  81.9148254
   6.9537616  70.9161949  20.1331687   6.7663181  71.6441631  20.7257557
   7.8655124  71.0477352  19.8730946  22.2317028   2.2340439  30.0424671
  21.4765310   1.6759787  29.8566961  21.9086409   2.8693175  30.6814432
  88.8444042  72.0650864  20.8535480  88.1921768  72.7578497  20.9579659
  89.6632290  72.5307131  20.6833863  15.4679573  88.9015961  26.2890077
  16.1042321  88.1956005  26.1751819  15.8359611  89.6369743  25.7990932
  96.6122437  71.7884493   6.7381752  95.6690979  71.6927433   6.8706512
  96.9868469  71.7063284   7.6151937  51.9765711  65.7893658  86.7879391
  51.4442253  66.4818048  87.1795654  52.5712156  65.5195951  87.4878407
 105.5798244  89.9755001  38.4700513 105.2544117  89.2038727  38.0064487
 105.6804180  89.6854687  39.3766904  17.0966649   3.7192431  21.7611408
  16.1724102   3.6509022  22.0005465  17.2959292   2.8856921  21.3348556
  22.8474069  13.6602736  13.6784220  22.1312094  13.8030136  13.0596173
  23.6414242  13.7696135  13.1551492  96.3395786  45.5557966  32.5182700
  96.4144039  46.5023518  32.3971701  96.4766502  45.4227543  33.4562159
  70.4523373  66.0585356  26.4612627  71.4005899  66.1812210  26.4165616
  70.3354263  65.3035927  27.0379996   7.6639956  90.5656815  32.9151893
   6.8857354  90.6194305  33.4698534   7.6556623  91.3794708  32.4112964
  84.1759968  95.8437538  27.2926736  84.4149399  95.9812927  28.2093096
  84.9916077  95.5741501  26.8704057  35.3910923  37.5449848  69.2598057
  34.6796799  38.0221033  68.8326263  34.9519801  36.8550086  69.7571421
  22.9076314  89.3092346  28.0286169  22.3396683  90.0400639  27.7846146
  23.5894418  89.3011189  27.3568249  86.9256496  76.4112282  13.0436397
  87.6921177  76.8511963  13.4113002  86.7276859  76.9016981  12.2458410
  62.1613359  82.3223305  26.5951395  62.9053736  82.8771877  26.8291807
  62.4632072  81.8249512  25.8350611 100.9313583  23.6040545  41.7890549
 101.1973381  23.9171362  42.6536131 100.1001835  23.1547213  41.9423103
 112.9144955   4.3481284  60.0946426 113.5879993   4.2031285  59.4301176
 113.1210423   5.2078164  60.4613972  78.7498713  86.4669704  33.4691453
  78.3164597  87.3066139  33.6221027  79.5833302  86.5394211  33.9342546
  51.4124823  85.8149529  53.4036636  51.2087345  85.6121731  54.3166828
  51.9044209  85.0546741  53.0934906  70.6436634  72.6746130  26.0563922
  70.8287764  71.8336821  25.6382966  71.5011454  73.0896807  26.1495471
 100.8416748  71.3315201  88.7777996 100.7124901  71.0509062  89.6837807
 101.7894840  71.2960005  88.6488914  21.0319328  10.5385089  13.8495231
  20.1769829  10.1092887  13.8821328  20.8450532  11.4589214  14.0343142
 106.2632370 101.9983482  86.1810970 105.4176712 102.3498726  85.9023762
 106.4162827 102.3944855  87.0389366  97.2855377 100.2581406  16.8357992
  98.1344604  99.8286343  16.9410670  97.2319603 100.8666515  17.5727391
  76.9766760  93.4584141  14.2855287  77.7833271  93.9717007  14.3311250
  76.2831545  94.0827084  14.4988835  85.8508015  78.8684082  34.2571926
  86.5548611  79.5065117  34.1416669  85.2331638  79.2977715  34.8491430
  66.2263346  96.3614750  46.8008184  66.9768667  96.8518925  47.1361017
  66.6135836  95.6276035  46.3236284  66.7654467  78.8739920  33.7769818
  67.3433113  79.4070101  33.2309103  66.4959860  79.4603157  34.4839811
 108.0143261  75.8560085  56.5846205 107.5019455  76.5684128  56.9669533
 107.7604294  75.0819016  57.0871353   4.8367125 106.2263966  15.2382553
   4.0261394 105.7963848  14.9656844   4.6953809 107.1519947  15.0394297
  81.7684174  87.0483208  47.6360893  82.4435806  87.6977062  47.8327942
  81.4889526  86.7262554  48.4930611  52.7936745   6.8292993  17.1218860
  52.1982336   7.5782907  17.1481967  53.3014011   6.9550073  16.3202357
 105.7846737  80.5377960  27.6750898 106.6863441  80.2342796  27.7804875
 105.6322289  80.5122185  26.7304540  32.5468278 101.6779327  76.5651989
  33.3966351 101.4402390  76.9360924  32.1421933 100.8408165  76.3377094
  20.9527302  93.1120396  47.7150345  21.3863301  92.6867771  46.9751835
  21.5833712  93.0465794  48.4321356  70.0967741 103.4218979  51.9084024
  70.4614401 102.5570393  51.7205763  69.1927576 103.2487488  52.1710968
  84.9458981  86.5396023  16.5916836  84.2719841  85.9426594  16.2665260
  85.6613731  85.9662247  16.8665564  46.7802668  42.2282076  90.7287502
  47.4144936  41.8543673  91.3404942  46.3562632  41.4686251  90.3293896
 106.2555695  75.0718689  16.6207612 107.1881771  75.2819777  16.5725589
 106.0850239  74.5568132  15.8321798  24.9606872  39.2923665  92.4882221
  24.1803479  38.8623595  92.1383762  25.4195571  39.6215868  91.7153835
  54.9183321  44.0711308  88.3428001  54.2191029  43.8233900  87.7378654
  54.8535442  43.4366083  89.0565300  11.7523980  83.4748840  55.6683064
  12.4145019  84.1644287  55.6194830  11.9996929  82.9592991  56.4359331
  71.0383940  64.3037891  18.4932137  70.9527493  63.7927723  17.6883781
  70.2090740  64.1691113  18.9518273  95.1891899  74.0640163  49.7768974
  95.8592892  73.5647678  50.2437544  94.8944855  74.7191811  50.4094601
  70.5253839  10.9261680  87.8827953  69.8891401  11.3017178  87.2741985
  70.1304531  10.1004291  88.1628323   1.6834530  80.8911896   5.7840449
   2.5902706  81.1932182   5.8359164   1.3505782  81.2711811   4.9710056
  92.0875645  57.9363489  55.8829451  92.9773521  57.9485178  56.2355995
  92.2064209  57.9299641  54.9331760  48.4979677   6.7998350  33.2556152
  48.2435083   6.0058469  33.7257910  47.7261162   7.3639649  33.3029342
  30.8383608   4.9712190   5.2324051  30.2870870   4.7967282   4.4695926
  31.6360736   4.4671571   5.0717592   0.1881238 105.5946732  16.9931316
   0.4220597 106.2355804  17.6645005   0.5029781 104.7595787  17.3391449
  92.9131985  65.5958080  40.8392239  92.9746056  65.8012390  41.7720985
  92.2829723  64.8768234  40.7932806  28.3090830  96.6510010  11.9790912
  28.6392999  95.9370804  12.5245309  28.6225915  96.4444351  11.0985947
  87.5506020  67.1823359  44.3900681  87.1314621  68.0051708  44.1380978
  88.2371902  67.4416256  45.0045633  44.2896843   2.7554187  31.7402864
  44.7586298   3.5736558  31.5765452  43.7606716   2.9340029  32.5177717
 102.7988148  62.2185612  18.6811411 103.3849144  62.9671907  18.7919497
 103.1177902  61.5697479  19.3084586   6.2899166 105.8028316   0.1862544
   6.9708687 105.2987003   0.6316656   6.4837092 105.6965065  -0.7450736
  83.2257175  98.7948799  41.5563059  83.3386517  99.6369553  41.9971991
  82.5642681  98.3388805  42.0766735 112.5687218  90.4047585  48.8295174
 112.0929623  89.6152878  49.0876341 111.9302273  91.1113739  48.9257002
  69.5320797  97.4870586  39.7493720  69.4692373  97.0056438  40.5743122
  70.1541138  98.1917858  39.9301052  82.0742130  73.7035084  19.0266168
  81.2183952  73.4853840  19.3957031  81.9581318  74.5768499  18.6524153
  31.3873863   0.1966508  18.4135640  30.8343148   0.5557547  19.1073847
  30.8352876  -0.4539005  17.9797411  84.1870499  72.4013567  15.4773104
  83.3028507  72.7405787  15.3381610  84.7568035  73.0271912  15.0301695
  95.1154613  81.8373299  44.2325687  95.3919792  81.1876106  43.5863256
  94.3583012  82.2654152  43.8329601   4.1005602  98.1796455  44.5667171
   4.3607536  99.0238094  44.9353981   4.8965898  97.6490021  44.5980930
  97.4065208  62.3288155  62.6821280  97.7691460  61.6039658  63.1913757
  98.0521870  62.4837255  61.9926691  24.1698790  99.6756744  57.4831963
  24.1665316 100.2099991  56.6890192  24.8177719 100.0937080  58.0503988
  95.0003242  62.6481581  25.8067346  94.1849804  62.1626139  25.6814384
  95.6513023  61.9755507  26.0068607  63.8314104  86.8030453  46.4473534
  63.5115528  87.2880077  45.6866074  64.2298317  87.4700832  47.0064211
 110.5437851  67.3269844  45.3018045 111.0470009  66.5981722  44.9387026
 110.6818771  67.2659826  46.2470245 101.3368988  93.5417557  76.3683653
 101.7339420  94.4123840  76.3441324 100.5627155  93.6159611  75.8103609
  98.7140274  73.8344097  55.5779934  99.1832066  73.6598969  54.7621250
  98.0339146  73.1616974  55.6117725  91.2648773  70.5462217  30.2484250
  90.7893467  70.9552288  29.5253634  91.5099335  69.6827364  29.9158978
  80.6678104  29.3087339  88.9476013  80.5001831  28.4413314  88.5791588
  79.7992086  29.6516085  89.1578293  97.1175289  70.5687571  50.3156996
  97.2017670  70.5208492  49.3634176  96.4961147  69.8749447  50.5363894
 104.5853615  92.4346542  29.0906954 104.1825199  92.2318077  28.2464170
 104.6926308  91.5836239  29.5155239  94.8533344  61.7402840  57.9111862
  95.3632355  61.5433455  57.1254110  95.2186012  61.1657000  58.5839891
  95.0017357  57.9605961  31.4401221  95.5454731  57.2525454  31.0947990
  95.5699253  58.4186888  32.0594239  80.7192516 104.2283440  10.9042370
  80.2947426 103.4021664  10.6730402  81.0507488 104.5681095  10.0730324
 110.3573895  48.5535431  17.5608897 110.9711361  47.9636049  17.1232593
 109.5395279  48.4525442  17.0739222 104.6916485  63.4418964  37.8469205
 104.7800255  63.1198692  36.9498563 104.4730949  64.3685770  37.7482986
  67.5709152  69.1569042  53.7689543  68.0824709  69.9448252  53.5853052
  67.9000998  68.5073996  53.1476545   8.9993423  69.3799973  22.7185512
   8.0683225  69.4959402  22.5288367   9.0696245  68.4778833  23.0307770
 103.1452370   9.6616679  53.3418560 102.5494289   9.0605217  52.8947878
 103.1897449   9.3315542  54.2392302  59.8470640  70.4018974  52.8842020
  59.8877096  69.6304941  53.4494591  60.6825733  70.8469582  53.0259132
 104.7376728  75.5223989  47.0616198 105.5937576  75.8213997  47.3681450
 104.8570156  74.5879555  46.8918943  77.4294376  87.5737858  28.6708784
  76.4776564  87.4749470  28.6469674  77.7335501  87.1603203  27.8629255
  99.6002769  98.7969589  40.3447962  99.8882103  97.8944969  40.2073574
  98.6740875  98.7205887  40.5740595  47.0931482  99.7690868  18.2243145
  47.2782469  98.9722729  18.7213552  46.1459208  99.7514915  18.0876064
 105.7036591 103.5382938  35.5700231 106.2642002 102.9546928  35.0587225
 104.9370861 103.0067730  35.7847023   7.1862471 106.4505863  62.7843380
   7.9737306 106.3279724  63.3144951   6.8846560 105.5622101  62.5944138
  13.3548677  22.9026031  35.2209258  12.9053640  23.4011102  35.9033251
  12.8847373  22.0696378  35.1837802 104.6015072  17.2153175  10.8773494
 103.7894821  17.0383418  11.3522458 104.3379307  17.7885687  10.1575291
 101.1506462  74.0852785  44.9999714 100.3904724  74.5650625  44.6710634
 100.8011532  73.2337475  45.2626181  93.9444160  84.2501831  58.7830544
  94.8478222  84.4969845  58.9809799  93.4240246  84.6837425  59.4594002
  29.0432262  80.6873512  40.6237268  28.0939984  80.7969570  40.6801701
  29.2051172  79.8139858  40.9804440 108.7275982  74.2055941   6.0703880
 109.6199322  74.5463276   6.1325771 108.1690979  74.9745083   6.1847669
  99.5150185  75.4938030  26.7547774  99.2131329  76.4021492  26.7526221
 100.4495239  75.5524635  26.9535065   5.0582147  80.7117653  52.5671864
   5.7049894  81.1289215  51.9980717   5.4454565  80.7546043  53.4415102
  92.8472042  74.0832138  39.0305138  92.2633648  74.4162989  39.7119927
  93.7200546  74.1257191  39.4211149 102.8409290 103.5527039  81.6435719
 101.9749928 103.2225513  81.8831253 102.8860950 103.4397602  80.6941319
   5.2333122  98.9792919  52.8373623   5.1464927  99.6774006  52.1882677
   6.1649191  98.7595558  52.8296328 104.2723942  81.9946480  22.6384282
 104.7623539  82.8158379  22.6810646 103.6211395  82.1396637  21.9520879
   7.2512960  48.9804935  62.7877617   7.4285746  48.5194683  61.9678497
   6.3392681  48.7702847  62.9883814  91.9073009  83.0240822  32.3211217
  92.5723362  83.5677147  32.7435231  91.1189651  83.1579018  32.8472972
  63.5105610  81.1209106  50.2918959  63.9604282  81.2045193  51.1326408
  63.4158039  82.0210266  49.9803925  73.7118912  37.6276350  87.3381996
  73.7912750  36.8982005  87.9528999  73.7772655  37.2209263  86.4741707
  87.1315384 101.7236900  39.1787839  86.7937469 101.1243057  39.8442721
  87.2619820 102.5497246  39.6444798   1.8026964  72.8723574  16.6267288
   2.3990972  72.8741550  17.3754168   2.1697667  73.5214138  16.0265458
  91.4927197  92.5312996  26.8462729  91.8954659  93.1179619  26.2060809
  90.5745506  92.4807930  26.5804720 104.2931747  64.1354990  10.4708838
 103.4684944  64.6213388  10.4610050 104.1224003  63.3627844   9.9323863
  18.2971656  16.2645543  64.6654797  17.5694656  15.6609654  64.5159292
  19.0153396  15.7052076  64.9614334  90.6176949 104.6999264  64.7051859
  91.0124779 105.4729462  64.3016911  91.0074997 103.9606762  64.2385101
   9.6408254  62.4243593  45.7403040   8.7090838  62.3562098  45.5318689
  10.0343704  61.6525126  45.3333521  94.1553116  87.9224205  19.6768618
  93.5757351  87.4366856  20.2637053  94.3050289  88.7555885  20.1236796
  99.7706604  94.3249416  24.9179435 100.3257370  93.5465050  24.9645233
 100.3845882  95.0503922  24.8037243  65.1770306  71.4583111  51.6909313
  64.7030115  71.4134455  52.5213099  64.8405981  72.2469616  51.2654018
  29.4313884  13.4174204  37.9217649  29.1142178  12.5868797  37.5670314
  28.7527800  13.6885536  38.5399961  82.2985554  74.7219229  27.0954990
  81.4192772  75.0999451  27.0812273  82.1640015  73.7950230  26.8980622
  12.1535265  50.1705456  80.0586510  12.9180944  49.6015072  79.9699831
  11.4204478  49.6360064  79.7535324  72.3618555  77.8818417  52.0847034
  71.8685484  78.3532667  51.4134073  72.6223707  77.0642233  51.6605997
  83.1653976  89.7822666   6.0691446  82.9861546  89.3117428   5.2550793
  83.3031559  90.6893158   5.7961619  18.8739789  24.3720198  91.8691254
  19.5998943  23.9451790  92.3241901  18.2046986  23.6917377  91.7948627
  84.2160511  67.9805374  21.6547012  84.6993160  67.4296618  21.0388923
  83.3003426  67.7299261  21.5325761  99.2573738  77.8084993  73.8789511
  98.3890724  77.4071932  73.9140272  99.5245934  77.8816938  74.7951746
  93.3968258  77.7372360  47.1723127  93.9178562  78.1906080  47.8350449
  92.9424763  78.4378004  46.7043257  72.9210949  74.0040827  55.1443958
  72.1482563  73.4486866  55.2467823  72.9098511  74.5742416  55.9131765
  92.0409298  82.2340679  14.4498122  91.9285393  81.9094372  15.3432405
  92.3614407  81.4775848  13.9586508 106.9293785   3.4677219  19.5934844
 107.5926208   3.1452176  20.2036834 106.3319397   2.7290329  19.4767237
  21.1509013  90.1487255  49.4925833  21.1742687  91.0043430  49.9210787
  21.9696641  89.7274590  49.7540951  71.7552996  86.9517803   1.0662013
  72.5808811  87.2691154   1.4321843  71.9751358  86.1047745   0.6782867
  77.8023577  85.4228115  46.9122934  78.2606125  85.1661015  47.7125025
  78.4776258  85.8300877  46.3697386  83.9109516 102.5959492  33.5504031
  83.5414219 103.3117104  34.0674853  84.3630123 103.0312061  32.8276157
  83.9817047  78.9824438  42.2956991  84.8484898  78.6319256  42.0906210
  83.6883926  78.4702730  43.0492735 112.0258331  57.5430155  72.2754717
 111.8720436  56.8873739  72.9556990 111.2722301  57.4628305  71.6907644
  25.5847526  78.0812693  21.3590598  24.8128653  78.2844925  21.8873787
  25.8206177  77.1890020  21.6129446 113.1333637  63.7691879  58.4889412
 113.5614491  64.3517876  57.8616047 113.4489632  62.8954411  58.2583189
  94.8407459   1.3310719  47.8090525  94.9941158   1.2543383  48.7507629
  93.9495659   1.0048268  47.6841593  95.2498722  67.2700357  43.0907488
  96.0508251  66.7490292  43.1478548  94.8629761  67.2110271  43.9642811
  83.4469414  84.1952801  16.8997228  83.7389469  83.6523342  17.6319647
  82.5906849  83.8385201  16.6635537  67.3520613 102.2720051  51.5383101
  67.1836519 102.2551250  50.5961943  67.0708752 101.4108086  51.8473530
  78.3838367 105.3617287  54.7938442  78.4137392 106.2310314  54.3942785
  77.7623463 104.8718548  54.2553234 103.5507393 104.9722290  50.1501465
 103.9279652 104.8009777  51.0130501 103.4968758 105.9264565  50.0973845
  99.3980694  81.5572643  41.1512852  99.6226025  80.9173584  41.8268204
  99.4531155  81.0681725  40.3303194  76.3667059  88.7179852  42.6523542
  76.7676973  89.4229794  43.1607056  75.5920553  89.1181946  42.2574043
  39.9310970  23.6061835  49.7615004  40.2684927  23.7878704  50.6386518
  40.5434704  22.9671812  49.3969440  44.9996567  10.6935287  44.6819448
  45.2626991  10.9977901  45.5505466  44.1599369  11.1240590  44.5214891
  78.7468338  97.4501896  54.9949789  78.4588528  96.5416813  54.9060249
  79.5276976  97.4010277  55.5464029  86.7415428 106.2940502  69.0729094
  86.6719437 106.2861538  70.0275469  87.0765591 105.4255390  68.8499975
  32.2721124  23.9999294  31.4308357  31.9192290  23.1231332  31.2793875
  33.1771421  23.8499618  31.7040777  11.0398698   0.7073346  18.2342935
  10.3890991   0.7001755  17.5323832  10.6202292   0.2371927  18.9547789
  25.8541656  11.7906988  51.4502382  26.7786646  11.7698205  51.2030602
  25.8352518  11.4316213  52.3373318 103.6528683  91.2135601  53.8039637
 103.6625481  91.0247231  52.8656292 102.9224396  90.6972027  54.1446686
  91.3483047  40.2939844  23.8140702  91.5126419  39.3792939  24.0433478
  91.1197281  40.7116985  24.6444297  98.2401657  76.4113951  56.6252899
  98.5326004  75.5299997  56.3932276  97.2996807  76.3193226  56.7777681
   6.4377934  83.0663109  19.1699493   6.8526024  82.3420811  19.6386254
   7.1613872  83.6502743  18.9427423  56.2588644  28.6106300  91.8432236
  56.2954426  28.4448934  90.9011936  56.1802387  27.7414799  92.2364521
  94.0826893  94.4025230  53.0678415  93.1680298  94.1241837  53.1143665
  94.0415096  95.3586864  53.0508804  80.0326061  78.8630772  79.0529442
  80.9246922  78.9983320  78.7333822  79.5770693  79.6785402  78.8438177
  83.6579704  90.0281334  12.4705839  83.7302589  89.1889763  12.9253519
  84.1927528  89.9211121  11.6839552  89.0437126  88.7746716  28.3847070
  89.9434090  88.4493160  28.4149194  89.1312408  89.7263527  28.4384179
  39.5781374   0.6761499  52.0449829  40.4129314   0.2225880  52.1617413
  39.6859479   1.5016565  52.5173664  63.0121517  35.6074309  78.5437679
  62.3054504  36.1565638  78.8832664  62.5639343  34.8838496  78.1058550
  92.8344822 102.0452499  44.1134501  92.1752739 102.4673271  43.5625124
  93.5923195 102.6283264  44.0695190  34.7967625  83.9821148  23.3016992
  34.5694566  84.2468834  22.4103737  34.0585399  84.2771530  23.8348150
  94.4465351  72.9500008  57.6250601  93.7478638  72.9085922  56.9720840
  94.9804020  72.1741104  57.4541473  19.7337222  12.0346212  28.6297393
  19.2966449  12.8715158  28.7872267  20.2972722  12.1973431  27.8733230
  12.3412371  82.6923561  61.8985271  11.9760633  82.0009804  62.4506760
  12.9973400  82.2483635  61.3612843  75.5679607 107.2584248  23.1108165
  76.0791159 106.9164753  23.8443136  76.1994123 107.7537632  22.5891352
  18.3264792   2.6490435  27.5877452  17.8572619   2.4106327  28.3872628
  18.6939800   1.8240382  27.2706628  65.3245878 103.2903194   7.5757432
  64.7599268 103.1337643   6.8188536  65.6075239 102.4174023   7.8481179
 100.3194141 102.7061749  42.7937222 100.6503963 102.3790646  43.6301899
 100.4381084 103.6546803  42.8435993   4.7629943  19.2665267  57.3078156
   4.0089864  18.7112117  57.5061321   4.5891264  20.0828266  57.7764940
  20.0840783  47.5845051  66.0431480  20.2747035  46.8442535  65.4670191
  20.4614186  47.3348808  66.8866730  87.7158642  82.9597569  29.3110132
  87.9082775  82.0507812  29.5411777  88.5742092  83.3798981  29.2565942
  60.5161524  19.7094536  81.9380474  59.7134733  19.1883016  81.9195366
  60.8427286  19.6783257  81.0388279  22.9592156  84.0370750  36.3443255
  23.0505610  84.6316719  35.5997872  23.7179875  83.4568882  36.2819982
  16.4805949  10.5745614  31.8540883  16.1358130  10.2610362  31.0179901
  17.4234784  10.4196072  31.7975807  50.8531809  13.6998403  60.6749153
  50.9207487  13.7004936  59.7201014  50.1733589  14.3456221  60.8673620
  26.2682056  90.6436729   8.3587849  25.5110860  90.3061104   8.8373768
  25.8913779  91.1891460   7.6683575 107.8825569  68.0783701  45.5982399
 108.8026333  67.8639698  45.4442310 107.5539684  68.3526087  44.7420549
 111.7125511 105.5120945  11.0148430 112.0550823 106.4051914  11.0507584
 112.4913216 104.9593067  10.9502280  99.3885517  90.0337315  74.7639656
 100.2147675  89.7973633  75.1855278  99.2657375  90.9582996  74.9792242
 102.3877907 105.1336765  10.5182183 101.8638134 104.7768307   9.8010474
 101.8466473 105.0051117  11.2972343  82.8480911  91.8169880  15.8590555
  82.9440308  92.2336578  15.0026608  83.6487865  91.3036346  15.9666932
  93.8293552  91.9959831  57.7580023  93.0606842  91.4370632  57.8720093
  94.2369938  91.6809940  56.9512510 105.5839920 103.4805107  71.7732048
 106.3867474 102.9835606  71.9309139 105.8516312 104.1880417  71.1866903
  27.4063516  24.2235017  51.9749165  26.5544677  24.0128398  51.5926266
  27.2019291  24.5447922  52.8531027  81.3081741  58.9165449  58.4871340
  80.5710888  58.5845327  58.9996910  81.9871521  59.1014385  59.1360092
  95.2063751  84.6146679  30.0497866  95.3385258  83.6962032  29.8148346
  95.0297356  85.0519466  29.2168307  25.6329036  90.5420876  33.6276603
  25.1560831  89.8157024  34.0292144  26.2618017  90.8143139  34.2959476
  96.7977524  81.4205837  27.2063231  97.6527214  81.0130882  27.0677280
  96.9677734  82.3606014  27.1455264  56.5977764  49.9423504  87.3275566
  56.9641352  50.8012676  87.5379658  56.0253000  49.7384548  88.0671120
 112.3976612  92.2419167   1.8271540 112.5083256  91.3000393   1.6973066
 112.2466946  92.3379517   2.7674824  13.2299542  44.1681480  20.9319091
  13.0133092  45.0560713  20.6474924  13.4768367  44.2648029  21.8516588
   3.5596123 104.5725822  74.0210056   4.0163299 103.7379360  74.1259241
   4.0671170 105.1910305  74.5465469  95.8597183 102.4805546  12.4192822
  95.2689171 103.2297325  12.4962020  95.8047771 102.0439339  13.2693291
 102.0991039  98.9360619  75.9547472 101.3459110  98.4245300  75.6593275
 101.9139099  99.8275185  75.6593847  96.6074371 104.7269726  28.0240631
  97.0526886 105.5674553  27.9165387  97.0047092 104.1592598  27.3636770
  71.0816240  91.8494701  26.4788580  71.2231398  92.7669430  26.7121720
  70.4412079  91.8791199  25.7680702  44.5519209   5.9565830  62.9538631
  44.1306639   5.3633207  62.3319197  45.1513720   5.3982747  63.4490252
   2.8076595 104.0388680  24.3332791   2.1331516 103.4944534  23.9272213
   3.1103313 104.6109676  23.6280727 109.4063377  96.8142605  35.7080197
 109.8946381  96.4419842  36.4423275 108.8826656  96.0856533  35.3746533
 106.9681168   4.5995799  43.5470390 107.5730515   3.8680345  43.6700583
 106.1553955   4.1908464  43.2492924  21.3868546  15.1350021  25.9860325
  21.3152838  14.6820259  26.8262243  21.8657255  15.9389710  26.1874032
   7.6162487  92.2417450  39.5840502   7.3841941  91.9192410  38.7132025
   6.9754106  91.8363667  40.1681995 103.8945103 106.6523552  45.4525471
 103.1994534 106.0646248  45.7486963 103.4313202 107.3935890  45.0623465
 110.3129673  96.9631004  21.7885017 111.1835194  97.2905254  22.0147038
 109.8455429  97.7316952  21.4613891 108.9502048  80.1626587  56.0234356
 109.8084831  80.4585743  55.7200766 108.8574791  80.5494118  56.8940973
  89.4886875   4.4563505  74.0197372  88.6650753   4.9226984  74.1626120
  89.2240143   3.5582024  73.8209629  53.1442261   3.8548192  39.4647384
  52.3591232   4.2443907  39.0799260  53.8378286   4.0382349  38.8310933
  15.8879316  98.7668610  38.3976817  16.4638603  98.0657101  38.7025261
  16.3047075  99.5709133  38.7075663  19.2603278  96.8295765   0.3204482
  19.8580241  96.0822678   0.3433596  19.3717384  97.2515869   1.1723454
 111.1623955  21.5354085  85.8221817 111.2631607  20.7095623  86.2955284
 110.2303982  21.7410922  85.8950996 112.6220608 101.7318344  19.1787672
 112.4312973 101.7023468  18.2412326 111.8071556 102.0343018  19.5796025
  59.9505568  33.0382681   5.3558517  59.8775768  33.9405274   5.0446743
  59.1078997  32.6405001   5.1368952  16.7081118  16.5391529   6.6982722
  16.5349507  16.9750309   5.8638525  17.6628494  16.4990973   6.7539728
 109.9942398  28.5633850  22.5926971 109.9397850  27.6119781  22.6826477
 109.4310951  28.7659645  21.8456626  46.0268021  27.4290514  34.1658258
  46.7036819  28.0913496  34.0264368  45.8375168  27.0920467  33.2901382
  52.8331184  24.6980500  22.8503680  52.9907131  24.5701957  21.9149280
  53.4797096  25.3523803  23.1149530  59.8664665  32.5859737  10.9264553
  59.5936108  31.6708040  10.8612955  60.0954676  32.8320217  10.0302136
  27.6741028 106.2667751  33.1698012  27.9582906 105.3561401  33.2486224
  27.8352833 106.4894772  32.2529292  26.7594576  18.2070780  51.8197060
  26.6407847  18.7880278  51.0682774  26.1929870  17.4579096  51.6350651
  40.3058577  27.8441811  46.0217190  40.7662773  27.1304703  46.4631510
  40.9561872  28.2166433  45.4262590 108.5890675  40.9599590  89.2427254
 108.9639664  40.6737280  90.0756454 107.7094936  41.2632847  89.4676113
  43.0244684  10.4619598  65.4755449  43.8158798  10.3972042  64.9410295
  43.3371830  10.3842354  66.3768768  67.8611994  -0.1913561  13.8499773
  67.9910660   0.1119254  14.7485232  67.0479918   0.2291098  13.5704470
   9.8115844  99.2003727  27.4772930  10.2327347  98.7996197  28.2377291
  10.1099062 100.1098061  27.4898648 111.3332939  53.9319754  82.0379448
 111.5550613  53.0932188  82.4423409 111.7110825  53.8818407  81.1598778
  38.3028173  13.0123019  16.0688531  37.9968071  13.8528693  15.7282126
  37.9899430  12.3682284  15.4336286  75.0687218  34.9041295   5.4009724
  74.1773653  35.0761032   5.0974321  75.0898266  35.2531338   6.2920296
  62.7630186  61.8433142  92.4028587  62.7755260  62.7965021  92.3161983
  63.4443045  61.5393257  91.8031311  12.4525356  90.4898643  36.9011879
  13.0565810  90.0090981  37.4670672  12.9900908  90.7703114  36.1605024
  39.8344541  28.6600304  22.6249409  40.0359344  28.9851809  21.7474914
  40.0208855  29.3997359  23.2031369  24.7837400   8.8285524  12.5200605
  25.1984453   9.6331012  12.2086906  25.4268551   8.1426638  12.3406374
  83.1544304  21.3530278  27.9568601  84.0895271  21.4940572  27.8087544
  82.7308655  21.7218113  27.1817303 104.7340298  38.8101578  91.2460041
 104.4692039  39.7244430  91.3469028 105.2586174  38.6253762  92.0250320
   5.4917514  91.6624641  18.4517658   5.2289987  90.9320354  17.8917062
   5.5552495  91.2818336  19.3277359  44.3476600  21.5463799   0.0330934
  44.1096515  22.4497049  -0.1756755  43.5105533  21.1058252   0.1793775
  55.5511475  22.2653794  42.8055286  55.7011080  23.2073402  42.8858566
  54.6751833  22.1937847  42.4263334 102.1071053  91.0396576  14.1951776
 103.0566883  91.1558533  14.2270410 101.9532681  90.5444241  13.3906221
  27.2052193  23.1126356  21.9025898  26.5634465  22.4152374  22.0367265
  28.0510235  22.6936007  22.0615149  41.8113279   4.7574171  21.1056614
  42.2374201   4.1159663  20.5371380  42.2010040   5.5952144  20.8557034
  66.0877371  13.2804120  10.3037536  65.5418825  13.0997181   9.5384914
  65.9896421  12.5050390  10.8563888  17.4383736 104.7832012  32.5691319
  17.4427819 103.8355541  32.7039647  16.5451789 104.9808979  32.2874355
  27.0491052  98.7850666  50.4002714  26.9489861  99.3453503  51.1698723
  27.5333142  99.3229294  49.7737885  70.3615236  19.5574796  10.4415333
  70.4653978  18.6779928  10.8047771  69.4143486  19.6895194  10.4009271
  98.8365841  39.2464113  26.7945385  98.5152626  39.4395137  25.9138012
  98.9588261  38.2970786  26.8021059  40.2255154 102.1666336  52.6671457
  41.1076593 101.9533443  52.3629045  39.9582791 102.9090977  52.1253300
  59.8263693   5.3206855  43.5545731  59.3191576   4.5098209  43.5162735
  59.7186756   5.6282753  44.4545841  89.2426300   8.6456543   4.8524854
  88.8179111   7.7884388   4.8846114  90.1786804   8.4481305   4.8204666
  23.0625558 103.3624268  20.0557446  22.4882460 102.8922749  19.4512928
  22.9970741 102.8745842  20.8766937  41.0092306  38.3411145  28.8415146
  41.0655117  38.8714504  28.0466509  41.7164135  38.6676168  29.3978596
  85.5073357  13.7483120  64.0348387  86.1803818  13.5002065  64.6686220
  85.7967567  14.5961165  63.6976480  57.5674438   0.9399235  35.2791834
  56.7997885   1.2913065  34.8281074  57.6157951   0.0273833  34.9942899
  61.8565464  44.6198750  89.7102737  61.9868803  43.9510202  89.0380478
  60.9912872  44.9833155  89.5219421   1.5625092  61.5067959  89.9754047
   0.6362795  61.2707376  89.9243546   1.8137228  61.2977457  90.8750820
  37.2758675  39.0097117  68.2095957  36.8338513  38.4694099  68.8645220
  37.3227692  39.8787379  68.6081266  59.5693493  21.5825367  13.5921168
  60.0350189  22.3845577  13.8290596  60.2526760  20.9955382  13.2684970
  86.6300011  91.0291958  90.7574654  86.1106586  91.7165756  91.1746311
  87.5327396  91.3419628  90.8164120  98.1795883  42.0529461   8.0538297
  97.3010445  41.7537165   7.8196275  98.2987690  42.8604746   7.5539041
  65.3907061  22.7795434  12.1622860  66.2332773  23.0703259  12.5112224
  65.5945826  22.4512005  11.2865829 106.3871479  58.2422543  83.0298805
 106.5529633  58.2711029  83.9721680 107.1741581  58.6192560  82.6365471
  55.7775354  26.6150522   3.0284178  55.9831953  27.0535636   2.2028010
  55.0381708  27.1082258   3.3838683  17.2763193  49.9569654  14.4701231
  17.3919022  50.7920933  14.9233651  16.4247549  50.0338316  14.0398204
  75.6076574  46.3654518  29.3956232  75.3149366  45.4549694  29.4352174
  76.0194588  46.4474535  28.5354328  40.6834936  58.9419794   1.8233052
  39.9533343  59.5570135   1.7538129  41.2443113  59.1505957   1.0761806
  65.0576496  11.1461651   7.3462790  64.5969248  10.3091037   7.2888893
  65.6780434  11.1285472   6.6175580  58.6865902   5.0321299   5.6785548
  58.0365753   4.8078185   6.3444358  58.9786243   4.1878194   5.3349161
  42.7236080  10.8178043  33.2574463  43.5343981  10.4002512  32.9667497
  42.5703621  11.5140116  32.6186633  62.0282269  19.6560729  58.9993620
  62.8637981  20.0875330  58.8207722  62.1398640  19.2676640  59.8670626
  42.1585655  24.3737578  37.1858907  42.4202204  25.0868011  36.6033649
  42.8109932  23.6897445  37.0352387  63.0957460  19.4042313  50.7736015
  63.7499380  19.2851639  50.0850582  63.4249163  18.8870859  51.5087461
 113.2955456  73.3825445   9.9300408 114.2391777  73.4744644   9.7983909
 113.0940723  72.5022173   9.6127659  37.6521873  15.2099705  32.5680280
  37.6463509  14.8567021  31.6784215  37.4947500  16.1472905  32.4545550
  41.7008924   2.5187665  59.5949936  41.4760637   1.6837683  59.1845512
  42.3411942   2.9123029  59.0022230 106.0023212  68.4643698  81.7169952
 105.9774780  69.3436289  81.3394737 106.9245911  68.2116270  81.6749477
   8.8591933  63.2574940  11.9594324   8.1019264  63.3530903  11.3818169
   8.6464471  63.7928629  12.7238619  84.6954632  28.5494208  34.4753170
  85.6055355  28.8310337  34.3821263  84.4787788  28.7377477  35.3884506
  39.0371871  82.2755337  54.5895195  39.8278856  81.7404079  54.6578693
  39.3615913  83.1669712  54.4617319   7.1694511 101.8951130  35.2047968
   7.6934761 102.3117161  34.5206404   6.2946576 101.8193340  34.8237109
  44.7757530  15.4664111  15.8526814  44.3239307  15.0115466  16.5634477
  45.3934050  14.8206794  15.5095148  47.3162079  41.8449783  14.0489972
  46.7413282  41.4018345  14.6729958  48.1996250  41.6809607  14.3789947
  81.6888905  34.3419194  83.8193607  80.9096050  33.8477159  83.5649872
  81.6275215  35.1580644  83.3230019  35.3538394  18.4098828  24.1156602
  36.1284280  18.1471229  23.6184669  35.6773567  19.0640032  24.7350931
  97.0474815  50.1516771  89.7472954  96.8943882  49.2424107  89.4903374
  97.3276234  50.5845594  88.9408493  10.5568624 106.3136578  30.7458520
  10.9769225 105.7616520  30.0862575  11.2674439 106.5643501  31.3361549
  23.8575530  10.6019855  29.7211003  24.0066004  11.3614368  30.2843499
  23.5404205   9.9217463  30.3151822  59.5372868  76.2035894  91.6634655
  59.0940189  76.0199690  90.8351994  58.8275719  76.3812494  92.2807026
  76.6264248   2.2835571  14.6593285  77.4008083   2.5096422  15.1745379
  75.9312677   2.8360364  15.0167608  85.5397987  66.6209412  78.0508518
  86.4116383  66.9463873  78.2749271  85.6450272  65.6710148  77.9979420
  33.3660316  96.8649864  27.5333309  33.0859518  97.2394371  26.6981220
  34.2295146  97.2473240  27.6896834  64.7341108  12.2985375  61.0987949
  64.5120716  13.0831563  61.6000986  64.8261070  11.6109741  61.7583609
  51.8503046 106.9119453  26.5862203  51.7245960 106.2486458  25.9076357
  52.2693634 107.6428890  26.1319709  35.5737519  27.9836416  46.5713596
  36.4088082  27.5268817  46.6727543  35.6889105  28.5223365  45.7885599
  35.5284047  85.8230972  20.9190178  34.9155974  86.2435436  20.3157592
  35.3214884  86.2020111  21.7733288   7.4071181  95.0003910  86.9000626
   6.7210799  94.3741417  86.6689968   7.8885353  94.5768738  87.6107693
  63.6965275  30.1227427   4.7301185  63.0276442  29.5396948   5.0891179
  63.2705355  30.9789038   4.6882942  89.6443558  20.9214568  47.5652933
  89.0173626  20.2336502  47.3416090  89.8733711  21.3191915  46.7252970
  88.0059433  62.9500580  84.3528748  87.2621536  62.7362919  84.9161911
  88.1879997  63.8717604  84.5360374  10.8087099  88.6804485  73.6301422
  11.6838467  88.9868164  73.3924341  10.7567310  88.8148403  74.5764351
  62.5431967  15.7155299  19.9331856  62.9134703  15.8776820  19.0655231
  61.8308544  16.3500273  20.0120020  57.5299025   1.9319187   1.9911307
  57.4752712   2.8867862   1.9527182  58.3440447   1.7200312   1.5345085
  64.5227432  38.3692861  15.0438213  64.3544674  37.4717236  14.7569430
  65.3094912  38.3041978  15.5851364  70.5235004   6.1885166  18.3979654
  70.7712984   6.2997001  19.3158257  70.9723091   6.8997580  17.9408669
  25.4181170  99.7631454  23.2750344  25.3552198  99.7628117  24.2301655
  26.1681461  99.1998768  23.0841994  79.9778128  51.3743639  19.8253512
  79.0590763  51.1910582  19.6289980  80.1225758  52.2590351  19.4897473
  55.3943825  22.3338079  18.1880701  56.1121082  22.6836491  17.6601386
  55.4632854  21.3844657  18.0869126   4.6136358  74.0899563  76.2248468
   5.1508290  73.4798288  75.7194805   4.9797583  74.9519539  76.0269928
  45.8223820  38.5702038  32.9665685  46.0659361  38.4125495  32.0543957
  45.8109951  39.5236874  33.0500674   6.9603145   4.9033973  59.3035126
   6.9713664   4.5253593  58.4241962   6.2527162   5.5475307  59.2784166
  18.3096516  98.5119820  27.0119357  18.9897346  97.8930092  27.2776270
  18.3714318  98.5404110  26.0571551  30.7366323  62.0696354  87.5054359
  30.4382586  61.6030121  86.7247486  30.7098126  61.4132881  88.2016563
  38.0763292  17.2572625   5.0218654  37.4255919  16.6762900   4.6278560
  38.8711572  16.7264235   5.0737393  87.4907970  26.9073796  25.1622224
  87.1479797  26.6234493  26.0096264  87.3396492  26.1621451  24.5808339
  58.2628870  26.4194775   4.2034113  58.6114550  27.1581483   4.7025037
  57.4458075  26.7480659   3.8283896  39.0830708  77.4267340  46.6846180
  38.5320187  76.6485405  46.6010475  39.5706654  77.4644279  45.8617783
  87.4955177  18.2976329  35.0105667  87.9420280  19.0755677  34.6763873
  88.0114174  17.5635588  34.6770716  90.4280281  30.6525660  46.0786343
  89.9124718  31.1378622  45.4344893  89.7782898  30.1773334  46.5965414
  87.5449848  20.0342894  60.1779318  86.6516495  20.2150583  59.8854971
  88.0506897  19.9564946  59.3689585  61.1816549  46.3611364  15.9168851
  61.9530344  45.8211517  16.0890031  60.5827713  46.1593390  16.6358066
  45.6454277   3.9163700  17.2442758  45.2506828   4.7714102  17.0730662
  44.9716473   3.4328920  17.7222919  73.2506990  77.0670223  74.1221952
  72.7520084  77.3053980  74.9036789  72.9728413  76.1726618  73.9243269
  35.2405262   1.9124471  55.0656509  36.1153865   2.2593066  54.8908901
  34.6456504   2.5902012  54.7447109  43.3200979   6.9069350  20.3280473
  43.9574718   6.9766402  21.0387707  42.7359772   7.6543701  20.4560041
  50.2985239   5.6864017   1.6229437  50.7919788   6.0270482   2.3690620
  49.9429226   4.8529443   1.9313753  23.9884257  88.0503845  45.2568197
  23.9564180  87.2647190  44.7109842  23.0719686  88.2397652  45.4579926
  49.2395401  99.7111416  16.1977923  48.3502436  99.8158360  16.5360498
  49.1917706 100.0288200  15.2961087  48.2240200 104.1028500   7.8800517
  48.5538864 103.6680984   7.0936573  48.6999941 103.6889744   8.6000443
  39.8078036   8.1692231  86.9873047  39.9889326   8.0221659  87.9156399
  38.9443445   8.5821414  86.9742298  62.2892523   4.5660782  26.0563445
  62.6515293   4.9114254  25.2404261  61.3434124   4.5492989  25.9102654
  82.0570087  48.3857012  22.2975421  82.2400951  48.0778313  23.1851959
  82.4281883  47.7111959  21.7287683  74.0682554  15.7968295   3.3684757
  73.9364386  16.7395544   3.4691083  75.0122309  15.6748223   3.4697208
  44.9097872  11.2016320  57.7156544  44.2244577  11.6448855  57.2155762
  44.7450209  10.2694702  57.5736761  27.5740123  24.0770721  14.6698594
  27.7215338  25.0161171  14.5573187  27.3742509  23.9758444  15.6004941
  23.4702969  21.3112044   4.6133789  23.5941434  22.2477341   4.7676748
  24.0710878  21.1049294   3.8973263  15.7211530  38.2491231  79.9178171
  16.1315811  37.5516009  79.4067001  14.8555732  37.9059243  80.1396656
  69.8623943  50.5531549  39.9139118  69.2449856  49.9087811  40.2600670
  69.6493149  50.6128263  38.9826369  62.8143072  35.3749204  33.8261366
  63.1902742  35.8475852  34.5687461  63.0397367  35.9081769  33.0638695
  79.6507502  17.0674467  19.1871750  78.7555742  17.0909619  19.5253086
  79.6860361  17.7833545  18.5527754  63.4188700  38.7070227  19.3453932
  63.5494184  38.1288028  20.0969577  63.6554146  39.5765376  19.6682250
  57.8790998   7.9484808  19.9215281  58.2026291   7.0678514  19.7316504
  57.0110035   7.8083569  20.2996874  26.1445570  84.9087524  21.8724561
  26.5355062  85.1713753  22.7057743  26.6112137  85.4254436  21.2155700
  77.8496265  40.7182980  20.3302240  77.3988914  40.6484842  19.4886804
  78.7786436  40.6469774  20.1109815  31.5210795  95.1822472  49.2088079
  31.6883802  94.9805450  48.2881784  31.1603022  96.0687923  49.1980362
  14.0930629  92.9727936  11.3240993  13.4992623  92.4215126  10.8144724
  14.6552682  92.3532009  11.7891359 100.1917553  69.4234896  85.7425880
 100.5369759  70.2849960  85.9768009  99.2411518  69.5349884  85.7547760
  81.6086483  23.5045958  85.5478096  82.4324131  23.9457655  85.3404045
  81.5321350  22.8168678  84.8864365  71.9168711  22.9067826  22.9087663
  72.5544262  22.2532654  22.6212430  71.3714457  23.0645370  22.1381426
  97.5043964  25.5813622   7.0368373  97.6023006  25.9112263   6.1436200
  98.1639767  24.8916817   7.1111059  97.2195816  86.1092949  82.6814651
  97.6097298  85.4463387  82.1118069  97.0463276  85.6480122  83.5020924
  89.6924591  60.5209780  71.0520744  89.5199108  60.1610851  70.1820517
  90.3073120  59.9039412  71.4488840  67.3941135  38.7507701  13.9759994
  67.2590113  38.1887078  13.2130671  68.0377483  38.2823873  14.5075846
 107.6929283 101.7104626  12.0637536 107.8239059 101.8900681  12.9947841
 106.7554951 101.5344524  11.9833398 100.9871960  97.7532005  12.3441839
 101.5806198  97.6055145  13.0805719 101.1123180  98.6745453  12.1168053
  53.0697203   9.7374821  30.6733322  54.0147543   9.6674126  30.8083630
  52.7084160   9.8343736  31.5544128  55.9422255  42.7967262  13.0762649
  56.1520576  43.3327007  12.3114562  55.1601887  42.3083019  12.8191781
  45.9223032  30.7966304  34.6697521  45.0343513  31.1538649  34.6822166
  46.0445642  30.4282188  35.5447125  50.5061054  41.3468981  12.0068240
  50.4792309  42.2991133  11.9130278  50.5111170  41.1994362  12.9525840
  62.0384359   4.2658484   0.1435374  61.4434338   5.0115883   0.2214979
  61.5180397   3.5883528  -0.2882268  32.1115255 105.2239513  23.2351613
  32.1001554 106.0022163  23.7923121  32.7739739 105.4145050  22.5710201
  57.2747850  17.2133315   8.0679691  57.7842093  16.9941580   8.8481486
  57.2016382  18.1674802   8.0899191  57.1773720  20.6858563  27.6960850
  56.7350960  20.8220243  28.5339880  57.9182625  20.1172900  27.9059410
  61.3774300  80.8822632  74.3129110  61.9497585  80.1165390  74.2646837
  60.5193186  80.5258083  74.5427418  39.7880697  32.6315975  11.8398571
  40.4484749  32.0429540  12.2053707  39.0859079  32.0510459  11.5463257
  11.8718219  59.9870062  63.8485384  11.8166447  59.2516279  63.2382870
  11.9839275  60.7551193  63.2884789  56.5070248  16.5991533  30.6802702
  57.0306683  15.8289576  30.4592967  55.8747244  16.2819254  31.3250899
  15.3973162   1.6944924  82.8797150  15.6058025   1.3702041  82.0035934
  14.4575608   1.8741620  82.8512669  66.9516182   7.5932312   7.7849209
  66.9500732   6.7351580   7.3607278  66.1962748   7.5713176   8.3724624
  46.8566084   8.2572287  46.5877771  47.3094654   8.7469703  45.9012556
  47.3783827   7.4624801  46.6989517  84.7274780  68.6432409  83.9120197
  83.9338779  68.4592915  83.4094238  85.0587082  67.7803755  84.1609764
  98.3495617  25.8721757  10.9240282  98.3272171  26.2333393  10.0378597
  97.4952698  26.0937667  11.2945890  53.4406471  32.0968008   6.7563576
  54.1869497  32.5760460   7.1163476  52.7905178  32.7732682   6.5667313
  63.1939507  29.7398496  14.3183982  63.6718988  30.1815271  13.6164606
  63.8351440  29.6466732  15.0229692  56.6465902  27.0685959   9.3621391
  57.3208523  26.3892055   9.3677205  56.0467386  26.8164945  10.0641763
  53.5097837  93.1060600  35.8343959  52.7174044  92.8352165  36.2980914
  54.0889263  93.4350967  36.5218258  93.4702110  66.5250301  83.2242584
  92.6515102  66.8316698  82.8344917  94.1044235  66.5604925  82.5081921
  71.4182967  16.3376682   0.1499948  71.8777007  16.5738409  -0.6558505
  71.3653869  17.1557777   0.6440935  67.5295258  32.7511978  12.2291374
  67.7804089  32.8167939  11.3077331  67.7434921  31.8504047  12.4720860
  63.4719563  19.3614030  24.1273379  63.5602379  18.9366436  23.2740998
  64.3346930  19.7397459  24.2969513 103.2506371  50.9663868  86.5826702
 102.6082802  51.6718292  86.5054607 102.8831005  50.2500677  86.0649490
  82.2422600   8.4723723   5.0993866  81.8667889   8.1424290   5.9157163
  81.5654182   9.0451229   4.7387278  90.0279903  16.1026967  47.6401901
  90.5343819  16.9146800  47.6182127  89.1707230  16.3455129  47.2903728
  67.1982098  20.4454994  29.6791244  67.9856157  20.9895778  29.6935034
  67.5082445  19.5693767  29.9082971  14.4364154  97.8398323   0.9399074
  14.3391550  96.9931602   1.3756962  14.9823368  97.6546001   0.1757807
  66.1894321  30.0997639  22.9184151  65.5174875  30.3988862  23.5309911
  66.8589687  30.7833266  22.9447961  40.5045652  34.5724034  36.4895511
  40.7759333  35.4900312  36.4660239  40.5106974  34.3445849  37.4192238
  70.7682323  12.9971516  26.6929054  70.5996084  13.5620117  27.4470472
  69.9058962  12.8551078  26.3024807  66.0223484  54.4969273  14.7781944
  66.4771652  55.2192163  15.2114034  66.2985325  54.5542192  13.8634968
  57.6953173  22.2187185  25.3369641  57.4190283  21.6531277  26.0580754
  58.6352968  22.3380184  25.4727554  59.1706467  30.1309204  29.1760015
  59.5500326  30.7012844  29.8445702  59.9167442  29.8593712  28.6413717
 104.6263409  86.2589359  90.1746273 103.8579559  85.7034111  90.0434589
 104.8683453  86.1206818  91.0903549  82.1892548  68.0452013  58.0551147
  81.7023087  68.7633610  57.6509476  82.2492313  68.2867956  58.9793825
  55.9160137  40.4949188  40.6934977  55.4406738  40.8048773  39.9226475
  56.8393421  40.5944204  40.4615593 101.5833378  88.5051537  76.0880756
 102.2289371  87.9283428  75.6797647 102.1008015  89.2218113  76.4553165
  10.0587654 102.1153641   1.4121552  10.8874571 102.3387051   0.9883360
  10.3132534 101.7627144   2.2648609  67.6095009   8.9321858  21.0287023
  68.1644773   9.3507612  20.3706503  67.3496675   8.1017870  20.6297588
  32.7876496  22.5557470   6.0295576  33.6952591  22.8352475   5.9097326
  32.7424169  22.2740889   6.9432610  73.9379358  71.9312048  89.4462776
  73.9702129  72.1423101  90.3793526  73.0645037  72.2070980  89.1683674
  28.5865784 104.6757126  12.4323118  29.4751644 105.0174332  12.5316894
  28.3853722 104.2812252  13.2809150  78.5697269  44.3829918  90.7954788
  77.8383446  43.8644791  90.4601288  78.9064503  44.8462200  90.0284958
  56.5529299  13.2283723  45.2381897  56.6293669  12.9505301  46.1509848
  57.4009752  13.6237431  45.0363588  73.3583593  19.8993826  12.9483056
  73.1320858  20.6879473  12.4551535  72.5588179  19.3731964  12.9386580
  73.9781380   9.6116805  42.9650688  73.5818195  10.4770136  42.8632832
  74.9070549   9.7895187  43.1124544  26.2077641   8.3974379   8.9272422
  27.0532346   8.4890902   9.3665749  26.3168144   7.6388133   8.3538067
  45.4492807  10.9443462  18.8911843  45.8583832  11.4166296  18.1660545
  46.1323690  10.8937991  19.5598149  90.4762268  37.4125624  52.3817730
  91.4237881  37.5284529  52.3116207  90.3200245  36.5217328  52.0683193
   7.0942283   3.7626070  90.9742737   7.8884107   4.2374283  91.2193298
   6.7151010   3.4837320  91.8077755 109.2147446  73.9494133  79.1219997
 110.0637722  73.8281536  79.5470572 109.3185139  73.5458612  78.2602501
  62.1497059   1.8380737   5.0648862  62.3449564   1.7172772   4.1356295
  62.7545643   1.2485933   5.5153179  59.7399807  48.5600996  35.1866412
  60.6393385  48.7540102  35.4508066  59.7253275  48.7291241  34.2445970
  60.0932550   2.9112875  28.5815597  59.5651293   2.7524668  29.3639207
  60.4557419   3.7876719  28.7111235   1.8871589   8.7889761  56.1714125
   1.0994469   8.2543993  56.2712574   1.9020152   9.3418670  56.9526434
 113.4158993 102.4390316  38.6842513 113.5831451 101.5115929  38.8519526
 113.0213356 102.4574184  37.8123522  51.8402386 100.1176262  17.3771513
  50.9533405  99.7627068  17.3165095  52.1242857 100.2091694  16.4676630
  29.6177077  37.7676868   8.5300732  30.1176238  37.4588084   7.7744889
  28.9805460  37.0728922   8.6959583  81.1285114  94.4959354  82.6242352
  81.3299274  93.6343288  82.2591400  81.2501907  94.3906307  83.5678101
  77.9905176  17.2985280   1.5489370  77.8844881  17.8496635   0.7735407
  78.7028027  17.7091777   2.0390877  54.9719906  37.4645185  35.5602026
  55.1394272  37.1817946  36.4592385  54.0925312  37.1398401  35.3668833
  69.0968943   1.9009042   4.9911457  69.3013048   2.2437678   4.1211501
  69.5170593   2.5135046   5.5948108  58.9938545  19.5936191  10.6034946
  59.6944809  19.0117359  10.8980596  58.5471773  19.1011822   9.9148607
  58.0834198  41.7189407  16.1532032  57.5607634  41.7335320  16.9549823
  57.4790668  41.4084959  15.4789543  77.9659843  16.9223261  13.3710778
  77.5323009  16.2726879  12.8177965  77.6181984  17.7623630  13.0717182
  55.7898426  36.9764233  49.8380232  55.9494066  36.6222882  50.7128716
  55.1726723  36.3624811  49.4400120  86.3329697  67.3028088  74.6695185
  86.7024612  68.1666994  74.4867563  85.5505371  67.4823713  75.1908350
  53.5825777  89.8376179  52.3535824  53.4487200  90.4998779  53.0316162
  54.4648409  89.5036697  52.5158119  53.0728865  24.6412849  20.0890970
  53.0184078  23.6917138  20.1966977  52.1955013  24.9574780  20.3046274
  99.7089863  21.9329047  14.5489216 100.6641483  21.9303250  14.4865382
  99.4426632  22.7422476  14.1127264  80.8008766  53.7222815  12.6418662
  81.4504242  54.3405914  12.9765558  80.2153778  54.2568779  12.1055579
  33.7507892  17.3082423  21.2148786  33.3805132  18.0531001  21.6884947
  33.3465505  16.5413964  21.6207981  90.4611111  50.7520533  87.6699257
  89.6694660  50.5158615  87.1864510  90.3305435  51.6694880  87.9097176
  55.6374264  26.3690925  50.0834370  55.3568172  25.8345461  49.3406391
  56.4901638  26.0098791  50.3284454  40.2412462  51.2420702   3.9504984
  40.4570866  52.1180248   3.6305875  40.8338642  51.1041880   4.6894327
  75.7878590   9.2172867  27.7043080  76.5882969   8.7189364  27.8691602
  75.8344221   9.4449520  26.7757440  28.9403653  22.8452516  32.1492004
  29.0554643  23.1430268  31.2468052  29.7730589  22.4291492  32.3721600
 108.0962849 101.7632008  88.4772587 108.5744572 102.1098232  89.2305470
 107.4840260 101.1304283  88.8527203  39.3784070  44.3954372  35.0270271
  39.6911407  44.0804291  34.1789722  38.5162997  43.9922428  35.1292133
  71.2513256  10.9076357   6.4669603  70.9982204  11.5157139   7.1615183
  70.4209995  10.5831587   6.1183786  71.8157673  52.0682001   4.3366539
  71.9201565  51.2778044   3.8069248  72.6381779  52.5441885   4.2212942
  18.2203281 100.4874516  18.9152372  17.3410976 100.4235554  19.2882037
  18.5180235  99.5802879  18.8469183  82.5262928  80.7530880  78.4357119
  82.0307827  81.4696121  78.0391121  83.3971786  81.1198425  78.5883045
  12.3584998  19.5700204  46.2932968  12.5364101  20.5022645  46.4177990
  12.0575166  19.2671251  47.1499729  62.3387432  27.8471756  30.5133748
  62.5903273  28.2975602  31.3196564  61.4275932  27.5910854  30.6563926
  50.1001406  20.3401923  21.9766212  49.1461420  20.3584790  21.9005489
  50.3586006  19.5219934  21.5523815   6.1874247  62.3325586  91.9215107
   5.2766407  62.0469713  91.8497849   6.1466831  63.1343460  92.4427605
  64.5641851  29.1270804  48.9455080  64.5622396  29.9947810  48.5413742
  64.2928934  29.2835379  49.8500252  54.4183874   7.6755250   2.5605425
  54.6436357   8.2660025   3.2794523  53.4805012   7.8103107   2.4247937
  53.2466650  31.3666773  32.5665784  53.5253429  30.7569051  33.2497692
  52.9108858  30.8057952  31.8673658  67.4261045  30.0175953  26.9670701
  66.7483616  30.1638722  27.6269984  66.9430637  29.9068069  26.1481500
  27.2148180  85.6970406  36.3991952  27.2712541  86.4142132  35.7677507
  26.8448615  84.9680614  35.9012556  63.0206728  22.8608251  21.0048103
  63.0499744  22.2201848  20.2942109  62.6473761  22.3813009  21.7443609
 103.0012417  98.7676620   2.7684870 102.3495770  98.3012486   3.2919601
 103.2281494  99.5337486   3.2955956  25.2162743  59.5550537  10.7485652
  24.4794416  59.5262194  10.1382542  25.4838800  58.6410236  10.8443129
 107.6455498  58.8707018  91.6718292 108.3428383  59.4914579  91.4604664
 107.8048706  58.6334515  92.5853729  57.6930714   1.3771868  50.2136421
  58.4283209   0.7686853  50.1403856  57.4541664   1.5743205  49.3079376
  67.8108597  21.6189814  45.7286215  68.0726433  20.7495880  45.4255390
  68.5550785  22.1814990  45.5142689  45.6595516  41.4283371  16.3010788
  46.2763166  42.1312904  16.5052581  44.8293495  41.8770981  16.1410427
  96.0947514  68.1529236  62.4025059  96.9939709  68.1075096  62.0775795
  96.1752987  68.0293703  63.3482742  75.8344078  22.9500270  51.2476301
  74.9866962  23.3751702  51.3775253  75.6271696  22.0179081  51.1810112
  81.2491798   0.4609432  10.7795787  80.6504536  -0.0050588  11.3631868
  81.1965370  -0.0164163   9.9515760  71.9344330  13.9015472  22.6973915
  72.6634312  14.4401085  23.0051923  72.3037243  13.0221558  22.6166010
  84.3757725  12.5566161  52.9499626  85.0111485  13.2720649  52.9243803
  83.8114357  12.7639854  53.6947823  88.5404587  10.9101331  13.3136940
  88.0028534  10.5690491  12.5989342  87.9223251  11.3753581  13.8773572
  91.9123840  14.9286938  11.5228677  91.3389015  14.5709360  10.8451068
  91.8534279  14.3004489  12.2426355  76.8740225   8.8832682  12.4651003
  77.8166008   8.7706518  12.5879467  76.7347479   8.7333494  11.5300286
  12.7880454  99.5082474  46.3170290  13.4615004 100.0010300  45.8481455
  12.9401839  98.5969639  46.0667562  42.3281479  16.2661099   9.5027941
  42.3754549  15.3217924   9.3535990  42.4866295  16.3685668  10.4412067
  91.7960453  60.7989264  76.2806606  91.8948460  60.0546598  76.8744087
  92.4098301  60.6201077  75.5682516  17.7368999  52.7856827  79.1703176
  18.6680424  52.5664043  79.1368198  17.7154386  53.7425089  79.1543913
  18.1021118  23.6689281  28.2818341  17.7527595  22.7796006  28.2245636
  17.3979771  24.1774130  28.6841655  93.1763268  14.8034227  23.0401611
  93.7300014  15.3287578  23.6178279  92.5063801  14.4378400  23.6178756
 113.7511921  70.5481815  84.2905521 113.4642124  71.0583496  85.0479126
 113.6870193  69.6371651  84.5771980  64.6013403  28.1116509  72.8973866
  64.2380953  27.3754811  73.3896637  64.1043043  28.8712955  73.2009172
  68.4759426  68.6221170  31.2692809  67.5225353  68.6566734  31.3471341
  68.7785292  69.4380951  31.6678405  59.6534634  32.2689152  35.9049487
  58.7361479  32.5419450  35.9196544  59.7113848  31.6636372  35.1656818
  36.6343164  16.9833863  15.9228420  36.5674877  17.3155010  16.8180883
  35.8310938  17.2816885  15.4961336 108.8723850  56.0896540  85.8676338
 109.2378044  56.7507124  86.4555931 109.0939236  56.4009762  84.9900055
  78.4486771  23.5983849  10.1190484  79.2302322  23.3868933   9.6084821
  78.6308575  24.4621325  10.4891634 100.0433826   3.4425524  24.8621869
 100.0689983   3.1771952  25.7815146  99.1108608   3.4792674  24.6493912
  92.8950024  39.2610812  57.1950388  92.9595757  39.5173478  56.2750435
  93.2053852  40.0262737  57.6791668  59.2660284  13.3422041  54.2190027
  60.2021503  13.3713090  54.4166422  58.9303255  12.6236236  54.7548962
  60.8122587  29.3167901   3.7874877  61.1454487  29.8681879   4.4954264
  60.0616121  29.7992849   3.4411296  75.6340313  15.2190435  32.9297185
  75.2088785  14.4973886  33.3930635  76.5587902  15.1428425  33.1647778
  45.1549864  20.6241655  27.0674992  44.6329308  20.4940629  26.2758136
  45.7585430  19.8813570  27.0811605  96.1284161  10.8278584  33.0562162
  95.8220673  10.8964717  33.9604688  96.8327904  10.1806164  33.0904269
  49.2178488  32.5459623  44.0911388  49.3619490  32.7761126  43.1732607
  48.3745718  32.9434562  44.3081903  66.6003609  27.2714949  48.7239408
  66.9157505  27.6815367  47.9185677  65.7751465  27.7182055  48.9128828
  73.9801121  28.9356351   8.4818196  74.3266726  29.7252536   8.0663294
  73.1353569  29.2055869   8.8420290   0.7578141  91.9897652  16.1494422
   0.2713005  92.0946598  16.9670820   1.6175315  91.6689014  16.4217627
  75.1305246  43.7737274  29.5360303  75.7892990  43.3194208  29.0108085
  74.6589231  43.0733109  29.9868560  61.8151474   6.2680167  11.5410733
  61.8316174   5.9724241  12.4513400  62.5569439   5.8229971  11.1312783
  62.3964834   1.8692094  25.9121752  61.4503050   2.0073719  25.9556866
  62.7477789   2.7089024  25.6159687 101.8070793  29.1015673  36.7861009
 102.4896145  29.4984126  37.3272943 101.9791603  28.1612325  36.8349791
   3.4824771  46.7523766  92.7613735   4.3769485  46.9448614  93.0426311
   3.5124454  46.8168068  91.8068218  67.0838642  16.4074957  72.0507860
  66.3561058  15.7861948  72.0265532  67.8577995  15.8641624  72.1992588
  79.0614891  13.5894823  21.7857122  79.1482639  14.0173626  22.6375461
  78.6771297  12.7356982  21.9845867  14.8739171  31.8509126  57.6173878
  14.8468637  31.8314409  56.6607666  14.8680663  32.7822638  57.8382540
  66.6635180  21.3882852  48.5263205  67.2179890  21.5407276  47.7611065
  67.2639704  21.4349413  49.2703056  93.7609100  35.1362848  28.7756419
  93.9468098  34.7463632  29.6298289  92.9552841  35.6353283  28.9103770
 106.1639214 100.4068947  89.8740768 106.7039108 100.2220058  90.6424904
 105.3039837 100.6261444  90.2327824  67.2422886  29.2158675  46.9511271
  67.6263046  29.7722054  46.2734461  66.5041065  29.7236490  47.2879887
  79.4662046  42.4622107  27.5581622  80.1633930  42.0224142  28.0447245
  79.8956537  42.7901697  26.7680669  80.5170536  30.2736187  17.4457490
  81.0605145  30.9129786  16.9852066  79.7826433  30.1125789  16.8533492
  83.7337780  32.5339580  41.4601040  83.3363819  33.3722401  41.2243128
  84.6511459  32.6226568  41.2016582  55.8051777  23.0438781  31.3905048
  55.9303904  23.4765339  30.5458951  55.6547260  23.7606502  32.0068097
  69.7617817  59.2581177  35.9895873  70.1120806  60.1276922  35.7962894
  70.0594234  58.7127113  35.2614594  45.1061487  27.6461506  17.2450209
  45.5806255  28.2747626  16.7010069  45.7736969  27.2791839  17.8246319
  83.5263634  63.0930471  20.8613467  83.0769157  62.2708702  20.6657672
  84.3715191  63.0151749  20.4187608  46.9893885   3.2738954  14.9878776
  46.8112326   3.4646785  15.9087980  46.8430853   2.3315051  14.9058580
  52.2272491  38.4600258   1.2227339  52.0926332  39.3975139   1.0840745
  53.0910969  38.2843494   0.8497247 104.8519325  32.5986743  20.6497216
 104.7602463  31.6624999  20.8269310 105.7963848  32.7378964  20.5801082
  82.2760868  22.9987931  25.8005834  83.0483055  23.5450554  25.9472394
  81.9272900  23.2976437  24.9607849  17.7022588 104.7999668  20.4039550
  17.6031029 105.2737427  19.5781612  17.0490658 104.1016960  20.3593969
 103.0004025  26.3338995  13.9046478 102.2227859  26.2859154  13.3485544
 103.7343121  26.3395953  13.2901680  51.8687534  25.0133419   5.6272721
  51.1688805  24.8322105   6.2546504  51.4695454  24.8571754   4.7714230
  66.7358828  34.7872281  31.8320155  67.0787191  34.5008206  30.9854555
  67.0656729  34.1399956  32.4553585  78.9010334   7.9346937  51.3783121
  78.8625288   7.2775406  50.6834030  79.8346615   8.1179094  51.4832306
  67.1434546  65.1659870  32.1047401  66.2277222  65.0274944  32.3465729
  67.1029043  65.6161165  31.2609577  14.9007154  81.3767815  70.3968525
  14.2605221  81.9508934  70.8172989  14.6832776  81.4170170  69.4655466
  59.9679232   8.8367820  35.2428007  59.8401499   7.9010832  35.0866795
  59.6642876   8.9735287  36.1402059  21.5127373  59.9474382  29.4610882
  21.4769220  60.2788019  28.5637879  22.1589279  59.2419434  29.4302678
  80.9873867  54.6043301  28.4364796  80.8440304  53.9333248  27.7690697
  81.6769600  54.2440557  28.9940882  18.9000511  95.1723862  73.0840015
  18.0630195  95.5878067  73.2914734  18.7438750  94.2378712  73.2200527
   7.5413877  45.7293701   2.5813958   7.3342234  46.0172939   3.4704483
   6.7447108  45.2932930   2.2791114  75.8825254  26.1281180  40.0649834
  74.9896765  26.3744783  39.8234105  76.3621569  26.1235404  39.2366314
  84.6841240  33.0241585  46.6073418  85.4961967  33.5245299  46.6873455
  84.7758675  32.5491452  45.7814026  91.0268688  15.6950903   7.8638279
  91.1184025  16.6228259   8.0809885  90.6891632  15.6909382   6.9681865
  79.4801378  27.2498322  18.6668921  80.3237247  27.3482037  18.2253981
  79.2233086  26.3441515  18.4936440  86.0521603  52.7331591  15.7838535
  85.4299450  52.0064020  15.7537746  86.0296154  53.0302715  16.6934955
  63.4675026  46.8866539  40.9031105  63.0489302  46.5930939  40.0938797
  64.2709827  46.3693619  40.9584761 110.8446693  52.7086449  45.9307051
 110.0584602  52.4835730  46.4281464 111.1049652  53.5654402  46.2689066
 104.6029091  77.6408148  83.0373478 103.9923668  78.3726072  83.1265450
 105.2187347  77.7530575  83.7615013  67.6539326   9.1895276  11.5202463
  68.1498241   8.9740390  10.7303798  66.7621183   9.3436456  11.2085581
  63.1374788  21.5959406  52.4686289  62.8390741  21.1521506  51.6747522
  62.6139164  21.2091613  53.1704283 104.7262764  70.9740162   9.4941992
 104.9925137  70.3303051   8.8377041 104.9283600  71.8204165   9.0954518
  57.0835304  40.2272749  18.6069655  56.2683535  40.6843424  18.8138568
  56.9173765  39.3175435  18.8539767 108.8918972  63.6278391  29.5819283
 108.8234234  63.7521505  30.5285501 108.7652016  64.5030594  29.2156410
  66.9989061  40.3987217   2.8478527  67.6796818  40.7641602   3.4128577
  67.4548388  40.1775455   2.0357919  26.4860487 101.4298534  88.4560394
  26.6777635 102.3654175  88.3912086  27.1283865 101.0133553  87.8814411
  73.5951519  81.9477081  35.1993871  73.0269432  82.7169418  35.2398920
  74.2912149  82.1305943  35.8304834   8.3702785  95.1924706  80.4559612
   9.2672050  94.8830986  80.5826378   8.1532359  95.6392956  81.2741756
  64.4806290  30.3755260  46.1948919  63.5970879  30.6804919  46.4012671
  64.6998930  30.8149981  45.3732967  75.2384710   9.0660650  24.8068166
  74.9042273   9.3208230  23.9468074  74.5869732   8.4514713  25.1445413
  74.8390818  42.0320654  19.9792373  74.3921328  41.2114096  19.7718966
  74.9615908  42.0049572  20.9281778  87.2853088  54.2711353  13.6267328
  88.1002235  53.8036346  13.4434557  86.8245411  53.7128353  14.2530131
  60.7219172  21.5167141  35.9197521  61.1682558  20.6795192  36.0467029
  61.2910175  22.1584034  36.3447142  68.0252266  49.6890879  19.1031349
  67.7962971  48.9483023  19.6644342  68.8803339  49.9766779  19.4230008
  63.1624365  25.8770609  33.1609154  63.0769205  26.6755080  33.6818767
  62.7461290  26.0902500  32.3257685  57.0477915  36.4177966  23.4434175
  56.2548399  36.7713761  23.8464642  57.7515459  36.9815302  23.7646103
  74.8273897  12.1759164  28.0356050  75.4518890  12.5542641  28.6545420
  75.3637362  11.6390860  27.4521852  72.9369497  16.5955365  40.0581694
  73.8657284  16.3987648  40.1801491  72.9133987  17.1795690  39.3001533
  74.7584009  12.4505019  17.8037143  74.3370008  12.6827788  16.9762456
  74.1269445  12.7091873  18.4749675  68.1402206  40.1909542  19.7840846
  68.6065292  39.9733639  18.9769661  68.8164949  40.1814032  20.4614258
 103.1698513  39.0969253  31.2677932 103.6104298  39.6572471  30.6289172
 103.8814735  38.7080240  31.7763042 110.7247639  33.7000322  41.0970831
 110.4757977  34.0736341  40.2517033 111.3551426  33.0134559  40.8792067
  54.2152262  16.6626489  35.5746007  53.4906197  17.2823334  35.6592298
  54.9804926  17.2111011  35.4019547  40.7420301  64.6878052   0.6986236
  41.1955738  64.5426989  -0.1317204  40.1390791  63.9482784   0.7746248
  64.0673399   4.0608469  55.2559900  64.1784573   3.7569666  56.1568451
  64.3967485   3.3409104  54.7180176   7.3115325  26.6493630  40.5702543
   6.9104731  27.1296692  39.8459029   6.7419094  25.8910036  40.6992912
  52.9765987  43.5637283  37.3130655  53.1343269  43.4755802  36.3730764
  52.0510960  43.7987661  37.3796248 103.8671970  83.6961651  83.9492607
 104.4431782  83.4282112  84.6652794 102.9965115  83.4055710  84.2207241
 104.5102787  89.6695518  90.7567215 104.0246010  90.0030804  91.5111160
 103.9663219  88.9590931  90.4167271  79.7674847  43.2570648  16.0278451
  79.0787363  43.3033037  15.3647292  80.3801250  43.9515114  15.7856762
  98.2275486  67.0623112  87.8131008  98.8093758  67.7861595  88.0449486
  98.0945396  67.1546745  86.8696976  25.5427933  21.8101645  52.4230766
  24.8045754  21.2113285  52.5356007  26.1991048  21.5012956  53.0476475
  82.8043842   2.7671850   1.7075729  82.0062160   2.2389156   1.7168127
  83.1653690   2.6711658   2.5888801  64.8940611  43.0686092  15.7313621
  64.6104240  42.9598999  14.8236382  65.6118631  42.4438190  15.8344626
  67.1706009  56.7786741   9.2687207  67.9084301  57.3883915   9.2595577
  66.4739275  57.2525454   9.7229511  35.0456762  27.8183532  21.1651587
  35.4433274  28.2339501  20.4000521  34.1926384  28.2437110  21.2525010
  82.2945690  24.7592187  11.8579626  83.0824375  25.2977777  11.7842293
  82.4718285  24.1751552  12.5953090  75.7830763  29.7899747  27.0708251
  76.6703129  29.4366002  27.1353936  75.2893400  29.3221617  27.7443290
  97.4715137  30.4308176  26.2357593  96.6326523  30.3535151  26.6902566
  97.9911995  31.0134006  26.7896128  66.8982983  30.0233483   4.5578194
  67.0588684  30.9367633   4.3209201  66.0338640  30.0309157   4.9688309
  81.7058563  33.6351752  30.4238605  81.2240982  33.0010009  30.9548593
  82.0316410  34.2772937  31.0545611  81.1819839  65.5357647  24.4675493
  80.5484962  65.3799772  25.1680160  81.8410015  64.8513985  24.5840478
  84.2749596  29.5016170  28.6652803  83.9996624  29.6159506  29.5748782
  85.2287960  29.5771027  28.6924386  31.3156915 100.8087254  91.5008640
  30.4560399 100.5492020  91.1693859  31.8658113 100.8675766  90.7197571
  24.3049932  50.1647139   9.7036219  24.4811153  50.0329447   8.7720370
  24.3305779  51.1144447   9.8202199  85.2496719  24.5467663  35.3765082
  84.3820953  24.8640847  35.6272173  85.1447487  23.5984778  35.2992272
  74.3015099  88.2913017  25.9973478  74.3012047  89.2092419  26.2686896
  73.3963156  88.0051136  26.1195898 104.1493702  41.4632845  10.4102063
 104.1428661  40.5486822  10.6924999 103.6209297  41.4713812   9.6121299
  84.9232769  23.8265443  17.6333857  84.2825031  24.0131712  18.3195472
  84.4931889  24.1001797  16.8232095  64.2194986  35.6339574  15.1529610
  63.7330246  35.4288483  15.9513998  64.2941570  34.7961450  14.6960914
  48.8384533  19.7896099  69.2115927  47.9653597  19.8567903  69.5981455
  49.4288826  20.0998378  69.8981619 101.2024784   8.0257529  36.7326689
 100.6509018   7.2631544  36.9071341 101.9700813   7.8987437  37.2902322
  57.5484419  29.7732854  17.1259022  56.6167688  29.9924707  17.1389425
  57.9845190  30.5616665  17.4492085  68.9870310   9.0750408  46.7578554
  68.6060810   8.2959688  46.3526964  69.9323988   8.9348167  46.7044592
  69.5055532  21.5859962  67.5380516  69.6026659  21.5031791  68.4867048
  68.8042641  20.9739876  67.3147392  66.3523960  56.5354538  32.7405977
  66.0664988  56.9545031  31.9288754  67.2913933  56.3945150  32.6195502
  88.0796146  66.6870546  16.0278881  87.5298882  67.4619055  15.9111083
  87.9338264  66.1684942  15.2366412  81.4660168  37.6385832  34.0276694
  81.3790417  36.7328644  34.3248916  82.2455788  37.9644561  34.4774675
   6.7632455  85.7911968  89.9845314   7.1155393  85.0005817  89.5758152
   7.4029052  86.0171032  90.6598282  35.1544547  96.4068985  86.0542297
  35.6231427  97.1036530  86.5136623  35.8192134  95.9943295  85.5027580
  71.5375185  60.8592510  39.5888495  71.7619228  60.2526903  38.8831878
  72.3822641  61.1473083  39.9347663  81.8632698  49.2792749  18.4682930
  81.9777679  50.2295542  18.4586167  81.7269707  49.0638351  19.3909204
  69.2336178  55.9872437  32.2438645  69.4000864  55.0608635  32.4180484
  69.5649433  56.1274815  31.3568521  69.2295742  41.5641069  10.8388066
  69.3340683  41.6894150  11.7819977  68.6903811  42.3031950  10.5572832
  61.6228199  56.8719530  28.0528736  61.1276960  57.5737333  27.6302743
  61.4630222  56.1030149  27.5056767  93.2150364  33.2243395  35.0238872
  92.6703644  32.7275276  35.6344199  92.7793503  34.0734863  34.9506760
  84.2132759  24.7849035  25.6113410  85.0263119  24.5560646  25.1609683
  83.9851284  25.6493068  25.2693105  93.3066940  57.2028112  14.9325049
  92.5450516  56.8134165  14.5029676  93.5762978  57.9102898  14.3468237
  73.2098198  24.4833016  41.6005039  72.5722647  24.5041394  40.8868408
  73.2022858  25.3726292  41.9544458  42.2891426  55.2757883  24.0800190
  42.7151537  54.8079920  24.7982883  42.5803900  54.8192310  23.2907414
  53.2357454  28.5471439  11.9530201  52.7601051  28.6204004  12.7804446
  52.5679350  28.6801076  11.2802804  53.9063120  14.1392851  24.4824862
  53.8485241  15.0727761  24.2788005  53.9031839  14.1021967  25.4389620
  77.6648235  14.4525135  17.6188767  76.9174910  14.4406402  17.0208895
  77.3828363  15.0106394  18.3435917  25.2126408  77.4301147   0.5640346
  24.9383688  76.6654634   0.0577610  24.7499228  78.1638432   0.1593577
  36.1901116  36.3263392   3.8604841  35.3563571  36.3153505   4.3305522
  35.9502792  36.1883450   2.9441494  94.7287178  25.5287266   3.0613622
  94.4105530  25.2511716   2.2023147  94.6582699  26.4832044   3.0459452
  51.7955542  49.3361712  26.9967985  50.9288311  49.0862226  26.6765714
  52.3414993  49.3668175  26.2111521  28.4104562  99.9873257  79.5928049
  27.9981995  99.2942238  80.1084423  28.0299377  99.8946381  78.7193918
  71.4443874  57.4619627  40.2257395  70.6289005  57.6362085  39.7557902
  71.1966181  56.8457651  40.9150457 100.0183392  51.2723541  18.1423461
 100.8623791  51.5075874  18.5277057  99.7982025  50.4313469  18.5429454
  74.0106726  20.5324793   4.3176287  74.4331312  20.2790093   5.1383066
  73.4834480  21.2980270   4.5461148  46.8554831  54.5214033  14.3693554
  47.5225735  54.9361372  14.9163663  46.4468765  55.2474546  13.8980603
  61.4427567  29.2004657  28.2219100  61.8368578  28.7035823  27.5049567
  61.8196058  28.8176274  29.0141559  75.3173113  67.4190521  20.1231909
  74.5258141  67.9516745  20.2011490  75.0190353  66.5227461  20.2777934
  86.9785500  37.1954751  30.1677728  86.2781429  36.8291140  29.6279192
  86.8688393  38.1433082  30.0915599  71.0955095  40.7979870  36.4308453
  70.5950069  41.1434555  37.1700239  70.4717255  40.2502012  35.9543419
  80.0005341  33.8839841  44.0962458  80.7141113  33.2521605  44.0077019
  80.1718712  34.3236327  44.9290657  54.7200012  26.1569786  47.0086050
  54.0935087  26.2946606  46.2981272  55.4455280  26.7475629  46.8059731
  11.5185487  98.3863735  81.3157845  12.1416974  99.0958023  81.4727402
  10.8632743  98.4860039  82.0063782  13.3293283  30.5724430  51.9343138
  14.1442597  31.0735011  51.9017696  12.6420987  31.2233734  51.7920589
  86.9848442  58.4344196   2.6776484  87.2754574  59.2865324   2.3525567
  86.7619419  58.5914469   3.5951936  97.5376606  36.8068337  29.9306965
  96.9439411  36.7159820  29.1853976  97.6549149  35.9134746  30.2537966
  78.1144428   1.9122404  32.5519490  79.0606833   1.7956325  32.6371717
  77.7379274   1.2217838  33.0976009  75.1060724  23.8778305  46.1171722
  75.2854490  23.0064940  46.4704847  74.1777134  23.8556981  45.8850241
  49.4226837 102.3799324  34.0066099  49.2677832 102.4964523  34.9439788
  48.5640287 102.5097370  33.6039996  55.0442839  43.3163118  54.9117804
  55.4914665  42.9736614  54.1379261  55.5249643  44.1140795  55.1325655
  97.6764202 104.9191284  12.4745584  97.5231934 104.1390514  11.9414294
  97.1534538 104.7765636  13.2634926   5.0097287   1.8430881  11.2308741
   4.0537199   1.8886793  11.2450612   5.2775562   2.1624462  12.0925653
  53.4544373  46.4106750  37.8757691  53.1669378  45.8972549  37.1208000
  53.6045837  45.7619619  38.5634208  72.6951504  42.0478296  24.5856047
  73.0137968  42.2730732  25.4596567  72.3677826  41.1526394  24.6733451
  63.8381481  29.1279888  41.2872648  63.6248016  28.9462900  40.3720045
  63.9690399  28.2643437  41.6786909  74.5001650  19.4238973  42.3785257
  75.2726507  19.2507708  41.8404531  74.3245983  20.3563833  42.2525215
  68.4171772  18.8136244  85.2323055  68.4945488  19.3267322  84.4279671
  67.4746561  18.6984622  85.3532124  98.4114647  13.2106054  41.1121607
  97.5453854  13.5589647  40.9005404  98.9367867  13.9837587  41.3183355
  80.0725651  20.2488184   7.8274363  79.9906254  21.1906886   7.9771048
  81.0162830  20.0939274   7.7870327 108.4451103  63.1382656   8.5500711
 108.6663628  63.1266594   9.4812775 108.0096912  63.9803743   8.4178221
   7.5194478   9.4434577  78.0791378   8.1506145   9.1019976  78.7125921
   7.6514703  10.3913486  78.0966234  70.5214405  44.8856354  38.4504867
  71.3539648  45.2486086  38.7527966  69.8746920  45.5573606  38.6666703
  34.0089583  21.7991018  64.6548557  33.2747746  21.5735793  64.0835857
  34.2228889  20.9813690  65.1040506  92.4309063  63.0064583  69.3930435
  92.4552822  63.9624596  69.4341898  91.7901802  62.8124332  68.7088919
  15.2978432  14.5742345   5.3497678  14.6536016  14.2998087   6.0023582
  16.0263872  14.9221408   5.8639824 105.5611610  38.9700222  13.1598532
 105.2682781  39.8187423  13.4917009 105.5359554  39.0635419  12.2075665
  30.5482316  56.1670399  20.8693624  30.3785801  55.7759523  20.0123334
  30.4745483  55.4373312  21.4844465  60.6714153  33.7051225  86.2728405
  61.4790249  33.4360862  86.7105770  60.9284210  34.4543600  85.7354164
  51.7918491  26.6229725  57.3812294  51.7817831  27.5787330  57.4327278
  51.5929413  26.4303756  56.4649487  15.3036749  84.7120953  82.2566319
  15.8913958  84.9924946  82.9581928  14.4852710  85.1774788  82.4294376
  60.4677057  18.7168038  50.9463501  60.3874397  18.1590724  50.1725769
  61.3355923  19.1127157  50.8672428  80.0272846  50.5704546  35.0293136
  79.9033833  49.7074461  34.6342206  80.0935745  51.1676931  34.2842340
  65.2083874  37.2535253   0.0076596  64.6886492  37.6644492   0.6984914
  65.2286530  37.9029465  -0.6952452  92.5561047   6.5772533  17.0347106
  92.4405479   6.5819502  17.9848981  93.0265331   5.7633084  16.8546641
  16.9607115  73.7940407  18.4418905  17.4005258  73.5999012  19.2696011
  17.4455953  74.5364428  18.0813909  80.5123043  33.9056873  16.4606440
  80.2875423  33.8420820  17.3889053  81.3304043  34.4024110  16.4457881
 100.3570366  87.6242256  85.3586388 100.1935482  87.1846199  86.1930561
  99.4857883  87.7701187  84.9900341  72.2801495  62.6273060  32.4906993
  72.1687508  62.6615000  33.4407806  72.5799036  61.7350721  32.3166513
  89.7155666  42.9337978  11.7761493  89.9748135  42.8563929  10.8579814
  89.5195484  43.8635015  11.8921196  92.2544765  47.3927689  27.5512028
  92.0110893  48.0608559  26.9103765  91.4210701  47.0985603  27.9187632
  95.5693626  82.8923035  91.6093826  95.8290005  83.3973217  90.8388138
  96.0701275  83.2778263  92.3282909 104.0824604  15.0478494  50.4432058
 105.0170422  15.0148726  50.6473875 103.7664509  14.1625571  50.6238413
  65.7196665  40.3356552  18.1204712  65.6698799  40.7768202  17.2724569
  66.5257406  40.6673241  18.5160398  64.9576235  65.6271887  14.9413085
  64.3958426  65.6634283  14.1671538  65.0102806  66.5345049  15.2417111
  74.4092226  56.2190247   8.8260144  75.1677036  56.7624235   9.0396881
  73.6557722  56.7384768   9.1065699  69.2489338  40.3519821  27.6162076
  69.7917271  39.5686817  27.5264955  68.5153151  40.0735140  28.1643796
  57.1296930  36.3108349   3.7078840  58.0559492  36.4242625   3.9209893
  57.0020533  36.8271542   2.9120493  91.5483189  38.0468154  44.5359373
  92.1264839  37.9628634  45.2941608  90.7008457  37.7259493  44.8442745
 114.0194511  57.3518229  18.4329855 113.5398579  57.5916004  19.2259073
 113.7883663  58.0305529  17.7988291  56.6403008   8.7034100  72.0018768
  56.4858866   9.4818336  72.5370836  57.5034285   8.8469553  71.6137600
   8.6251515  56.1032391  35.0480962   8.2598954  56.2265730  34.1719627
   8.2557899  55.2722216  35.3467727  50.8957672  17.1214163  37.5539374
  51.2250042  17.7633142  36.9248104  51.6834784  16.7434943  37.9449844
  44.7495508 102.4660206   5.5802262  44.8393774 103.1586742   6.2347430
  45.6049919 102.0367432   5.5668432  31.5857148  96.4975357  11.9653428
  31.3515329  95.5802822  12.1069372  31.6146970  96.5931225  11.0133684
  64.1380167  46.1585283  47.1388435  64.6889544  45.9674597  47.8979158
  63.7278843  46.9982719  47.3458672 111.7354584  55.3803396  89.5262146
 111.5227318  54.6811199  90.1443291 111.8897724  54.9280882  88.6968231
  70.6975126  35.3775644  29.8835540  71.4473867  34.8614430  30.1794291
  70.5962515  35.1454639  28.9604568  89.2441845  14.3590605  63.6336184
  90.1319313  14.4228554  63.9858294  88.7869263  13.7770832  64.2406178
  69.4919157  36.6364431  31.9340086  70.1544285  36.1805582  31.4148951
  68.6882401  36.5563869  31.4202738  33.9514518 104.3246460  30.7960176
  33.5019493 103.6779881  31.3400912  33.3763719 104.4428444  30.0400138
  29.1620541  99.5925140  36.2730646  28.6731386  99.3137169  35.4988170
  28.9464164  98.9407063  36.9400549  80.5873108  14.3148839  33.7891960
  81.3317585  14.6537519  33.2920098  80.5007648  14.9150884  34.5298004
  40.0988102 103.3136559  17.3450196  40.7059765 102.6660347  17.7030325
  40.6388474 103.8563538  16.7705023  18.9887977 104.9007988  51.2348938
  19.2945957 104.0126514  51.4190626  19.2342949 105.0542641  50.3225279
  62.5889730  27.1424103  15.2947390  61.6988850  27.1873689  14.9455285
  63.0104637  27.9420638  14.9798822  43.4106302  18.7362218  14.8473120
  43.3622551  19.5572114  14.3575501  44.3438911  18.6171091  15.0235677
  63.5274124  25.5863476   5.7442909  63.7799454  25.8979797   6.6133952
  62.6734543  25.9881878   5.5845493  49.4504452  38.2423735   9.5513064
  50.1675415  38.7055945   9.1183692  49.7688389  38.0853772  10.4402447
  77.5084400  37.9525018  21.8251920  77.8990555  38.6230993  21.2648773
  76.6427231  37.7987766  21.4468622  49.8067951  27.1533775  23.4827948
  48.9045811  27.3142147  23.2064414  49.8708963  26.2005973  23.5486007
  94.9945641  91.1267948  81.5226555  95.4519749  90.3908348  81.1159897
  94.4738007  91.5058899  80.8146095 105.2674943  68.2266695  92.8529195
 106.0035115  68.6552150  92.4160495 105.6576425  67.4730999  93.2958007
  82.8032398  12.7769291  78.9040518  82.9548073  12.3377502  78.0671597
  83.6795902  12.9208803  79.2611551  90.5060387  22.8566742  16.0507894
  89.6837044  22.8469110  16.5405798  90.2718830  22.5275159  15.1830018
  49.4018269  95.4542542  27.5071478  50.2551889  95.8591747  27.6621747
  48.9356470  96.0819340  26.9549465 104.7848797  73.9117050  81.2803745
 103.9945889  74.1651583  81.7572689 105.4942894  74.0310240  81.9118214
  66.4054537  38.8790989  21.2865329  67.2419643  38.9044070  21.7511201
  66.5573788  39.3903184  20.4916692 106.1392498  40.0618553   4.3804365
 105.4059315  39.4665742   4.5357239 105.8059788  40.9231710   4.6320257
  81.1726189  25.0819325  39.3491197  81.1309910  25.5317402  40.1930237
  80.3670788  24.5661736  39.3126202  50.7610035   2.9008839  84.2977810
  50.7941675   3.8556856  84.3568230  51.4210892   2.6784408  83.6412430
  54.3598652  28.3388209  16.2465656  53.7496138  28.5115123  15.5296242
  54.5059443  29.1952705  16.6482925   2.9618314  87.0235729  78.2065678
   2.6811796  87.8849125  77.8974247   2.4478212  86.4040470  77.6886749
   6.0955346  51.5469646  26.4059043   6.8522656  51.4774799  25.8238721
   6.4714140  51.5683031  27.2859550  64.7484541  45.4605484  19.8704147
  65.1987743  46.2495947  19.5690048  65.2304029  45.1939917  20.6532979
  53.9295101  48.4336185  12.7200031  53.1377888  47.8956509  12.7221680
  54.6473026  47.8036737  12.7846122  81.0905457  31.2535095   9.7453260
  80.6638336  31.4042544  10.5887854  81.7855644  31.9105959   9.7076964
  34.9847674  59.6391916  43.7090921  34.9905062  60.5259323  43.3486795
  34.2714810  59.6446991  44.3473864  77.6390266  35.3299022   4.3121043
  77.4243879  35.3247666   3.3792943  76.9222498  34.8486567   4.7254595
  11.7531848  53.8138914  73.6155701  11.0099483  53.2192039  73.7164402
  12.5226045  53.2471848  73.6709309  66.7891645  98.1505966  64.3183899
  66.2243366  97.4027443  64.5131063  67.6218462  97.7594471  64.0540600
  93.6213589  54.5178604  24.7651839  92.8512383  54.8636627  24.3139982
  93.9380455  53.8168573  24.1955042  91.1852741  73.9033127  17.4783981
  90.5225563  73.3209801  17.1070194  90.9668159  74.7677279  17.1301210
  65.8462048  38.3141208  27.1861982  66.1042452  38.8368845  27.9453874
  65.1726055  38.8379383  26.7524767  93.3599854  96.9372654  23.9472055
  92.9254055  97.0767307  24.7885823  92.7107239  97.2018051  23.2955122
  70.3670883  14.2486882  86.9248772  69.9994612  13.4753001  86.4971447
  71.0682344  14.5354533  86.3397408  94.8143196  81.3199520  35.7970810
  94.6756268  81.1294079  34.8693490  94.2318535  82.0572186  35.9798479
   1.7952153  71.5396833   4.2088634   0.9130205  71.1821985   4.3097019
   1.6569600  72.4350023   3.8997927  89.5599651  36.9344497  30.9061742
  88.6471748  37.0522952  30.6431842  89.7422695  37.6793647  31.4789724
   8.4334373 102.8981209  81.9410229   8.2284695 101.9742393  81.7972755
   9.3890119 102.9399967  81.9042110 102.4271297  57.9761982   6.0439259
 103.3575535  57.9254627   5.8248937 102.3641777  57.5828981   6.9143182
  10.1545322  92.4303341  36.1096835  10.0313342  93.3467197  36.3572335
  10.4129875  91.9954014  36.9222498  28.6390352  86.1667538  30.1703858
  29.2994046  86.3852787  30.8279514  27.8295851  86.5511990  30.5068731
  87.6225185  28.6582351   5.3682536  88.0133533  28.0866599   4.7073632
  86.6801453  28.5945272   5.2129441  78.6678362  60.6080675  35.1695609
  78.3590603  61.3865995  34.7061181  77.9321003  59.9971533  35.1281714
  14.2741764  40.3885508  17.7751875  14.1513312  41.2951708  18.0565822
  15.0065255  40.4258633  17.1599603  63.8987875  71.2067366   8.3465844
  64.3563843  71.9061661   7.8800631  63.2944679  71.6642380   8.9311582
  71.0341597  50.0597811  19.2357147  71.5664911  50.7741356  19.5857978
  71.6702080  49.4392586  18.8798654  92.9235458  58.9479780  29.0941906
  93.4511185  59.7451687  29.0453124  93.2948112  58.4597492  29.8290586
 107.8856564  18.8063967  44.4284439 107.5191402  17.9411232  44.6106577
 107.1526527  19.3061471  44.0690136 100.4955673  69.9197388  31.2257838
 101.0435295  69.7868586  30.4522800  99.8501778  70.5718660  30.9529400
  71.4526653  60.4620981  14.7967732  72.0349073  61.2167263  14.8848677
  70.5763102  60.8418512  14.7333920  80.8288670  74.1533279  33.3702254
  79.9225426  73.8728952  33.2430530  80.8129597  74.6517038  34.1872978
  60.1925087  29.9886751  25.0401211  60.3241539  29.1426778  24.6121144
  59.9117947  30.5725002  24.3354368  76.8808270  41.1839294  10.2280343
  76.2205267  41.6176605  10.7685113  77.7156067  41.5211821  10.5530512
  95.8697128  36.4855242   7.2164237  96.5639877  36.5745497   6.5635115
  95.8095169  35.5434895   7.3750937  83.6746502  68.1627131   3.6925197
  83.1402206  67.9340124   2.9320493  83.4237766  69.0629482   3.8995677
  94.4943523  49.6912766   1.9045749  94.6906376  50.6238365   1.9942096
  95.3031826  49.3077755   1.5655389  86.9447899  72.9630280  46.0886002
  87.7720642  73.2192135  46.4963055  87.1771908  72.7594900  45.1826239
   6.7415762  23.1380653  23.2772994   5.8123279  23.0306435  23.4802532
   7.1657604  23.2171702  24.1317248  93.3005524 103.9261532  67.2308111
  93.2747173 102.9693031  67.2275686  93.6732483 104.1585732  66.3803387
  98.7125206  69.0323448  21.4358735  98.4480953  68.1269503  21.5988898
  97.8880882  69.5083952  21.3362217  82.1632099  56.1184502  35.1105356
  82.5211430  56.9034100  34.6958566  81.2693691  56.3614368  35.3518391
  18.3492792  37.5413132  28.2142735  19.0596712  38.1545281  28.4027958
  18.2151341  37.6133752  27.2692633  86.4031410  52.7248001  31.8156791
  86.7400265  52.3982620  32.6500154  87.0984745  52.5349426  31.1858368
  80.3578949  35.3525639  46.3736534  80.6908989  36.2489557  46.4162827
  80.9436417  34.8521852  46.9417667  72.3335075  64.5129776  30.6225562
  71.4731073  64.9229002  30.7114959  72.3386526  63.8210106  31.2839079
   7.0484871  61.2034035  71.2614107   6.4719421  60.5694771  70.8348370
   7.7481163  60.6725645  71.6421413  23.6231637  83.8028240  27.6159430
  23.9996123  83.1976604  28.2549167  23.3994460  84.5812035  28.1261468
  41.4103031  15.0288963  74.4155073  40.8732510  14.4060528  73.9257431
  40.9518814  15.8641911  74.3240356  74.7105789  31.8922353  37.6699662
  75.5357599  31.7535233  38.1347966  74.8975086  32.6033711  37.0571232
  90.1342583  56.4552164  25.9241652  89.1989994  56.6589260  25.9282231
  90.1779938  55.5260801  26.1500335 106.1164093  84.6531582  45.6504059
 105.3581429  85.1203728  46.0011005 105.9168339  83.7285423  45.7969761
  60.9164762  38.7860703  12.1261799  60.7830858  38.2629323  12.9166007
  61.7614174  39.2147231  12.2624254  94.8033333  38.3977580  23.8481474
  94.0634537  38.3344173  24.4521332  95.4133511  37.7225065  24.1450286
  85.9515572  97.1615410  48.4229517  85.2878666  96.4997482  48.2285833
  86.7030907  96.9122314  47.8851128   3.2802808  34.1980076  34.8377180
   3.6075115  33.3123469  34.6803761   3.5624272  34.6972656  34.0713215
 101.0431004  49.1706038   5.9794706 101.0641861  48.8834763   5.0665933
 100.8357239  48.3783484   6.4750093  63.0047941  55.8482838  13.5610509
  62.9302788  56.2784052  14.4129157  62.5664711  55.0055647  13.6790860
  39.6738887  78.7255335  81.2215710  40.4980803  78.2387733  81.2212276
  39.0739393  78.1810427  80.7118416  60.2274847  32.8306007  23.5698366
  61.1758089  32.8711700  23.4462762  60.0451374  33.4877086  24.2415404
  15.0096333  32.7564526  16.0815918  15.5882907  32.2308159  15.5292392
  14.2095697  32.8543663  15.5653119 107.5878716  32.0943713   7.5026673
 107.2520161  32.1592569   6.6086721 108.5229206  31.9201064   7.3951924
  89.4706917  69.2522287  28.2918715  90.2289295  69.4598627  27.7458000
  89.1776657  70.0995970  28.6270285 103.5934639  46.0418558  22.1480060
 104.2282486  45.8975458  21.4462590 103.3349419  45.1618433  22.4218297
  85.3969955  11.6648018  72.5412464  86.1604881  12.1356559  72.8753090
  85.6538391  10.7430685  72.5671101  11.9148910  63.6300993  90.5569649
  12.7981853  63.3974791  90.8431625  11.7456722  63.0550003  89.8107338
  94.0643311  61.9208002  34.1571522  94.0812016  62.8155231  34.4968891
  94.2688656  62.0140028  33.2267165 105.7013893  73.4386921   8.9400393
 106.4089108  73.2429123   9.5542955 105.6274223  74.3928957   8.9561236
  49.2783403  37.4484062   6.4212561  48.9709616  37.5188470   7.3250204
  48.8304758  36.6763544   6.0754383  47.7841759  24.4245601  20.8622265
  46.8410063  24.3996286  21.0235929  47.9696941  23.6073995  20.3995562
  71.7021227  55.3786945  33.7868214  72.3742247  55.5103350  33.1181073
  71.1376619  54.6941710  33.4275889  66.1530066  71.3052320  19.4288158
  66.6678572  71.7862034  18.7808740  66.2850475  70.3842449  19.2039108
  64.2011786  71.9210100  33.9642549  64.0961361  71.6983747  33.0392504
  64.0210676  71.1039400  34.4292140  78.1193066  34.9507523   9.5371628
  78.3907032  34.6323156  10.3980768  77.4678564  34.3150020   9.2410755
  58.6135387  62.5719452   0.1362693  57.6861858  62.7589893   0.2820982
  58.8917685  62.1093845   0.9267487 104.6414375  41.3973856  13.7950492
 103.9265060  41.7562342  14.3207347 104.9629116  42.1425390  13.2874751
  13.3657777   6.1852860  92.3190975  12.7521062   6.7833900  91.8925858
  13.2220769   5.3446239  91.8845081  78.4210110   0.7546736  59.3103600
  77.9359055  -0.0518794  59.4846535  78.2360888   0.9517057  58.3920908
  61.9701147  52.3388767  30.9585977  62.7132750  52.7656269  31.3850093
  62.3557234  51.5991068  30.4892564  79.3316698  51.8017149  24.8090529
  78.4352255  51.4666939  24.8286533  79.8175812  51.2200403  25.3936696
  40.0040674  23.0283713  20.9322834  39.3768120  23.7308741  21.1033773
  39.4610357  22.2653532  20.7344055  84.4091511  40.0983953  10.5870438
  85.1369572  39.7729588  10.0573170  84.4660950  41.0510159  10.5128396
   0.1718353  91.6586304  92.2686481   0.8172418  91.8017101  91.5763950
   0.4178660  90.8183861  92.6555347  70.6375265 105.8467197  33.2135510
  71.4385891 105.4948235  33.6017489  70.0648880 105.0860500  33.1150818
   7.7259392  82.0110512  74.7175169   8.4647048  82.6193333  74.6962595
   6.9711560  82.5419617  74.4632101 102.1877384  94.5395947  85.9556007
 101.9336319  94.4314384  86.8721008 102.7925873  95.2814579  85.9607029
  38.9605856  42.2886610  10.7845581  38.0320263  42.1306705  10.9549904
  39.2267394  41.5644264  10.2180958  54.5134878   3.6748868  13.5033357
  54.9372578   3.0670172  14.1092598  53.7706184   4.0245971  13.9953506
  73.4801960  92.3555183  20.5632615  73.8803005  91.4870262  20.5199742
  73.4194040  92.6369858  19.6504009 109.8122215   8.0455554  91.0743046
 109.3094063   8.3457887  91.8314457 110.6378651   8.5267580  91.1290073
  60.7973909  50.7797194   7.7765775  61.6206884  50.3593063   7.5282490
  60.2349567  50.6770849   7.0088750  68.9375925  63.3612251  23.5003710
  68.8575172  64.3148518  23.5209846  68.0772305  63.0426741  23.7733769
  70.0824213  98.8971043  24.3235040  70.4022598  98.0241489  24.0957212
  69.6363592  99.2024231  23.5335422   9.6614516  14.7341573  17.7941668
  10.4626405  14.8835516  18.2961714   9.3043840  15.6099391  17.6467192
  98.2219124  70.2008867  14.2189014  97.4648285  69.6532106  14.4265020
  98.9263725  69.8528957  14.7655904 108.1150723   5.9703332  19.2457986
 107.7206516   5.1122087  19.4016492 109.0286636   5.8658665  19.5116377
  16.2520981 101.8964577  76.3459539  17.1671736 101.6157246  76.3383913
  15.8691216 101.4856529  75.5708408 104.7948933  37.0729280  20.3879833
 105.0877094  37.9620218  20.1879764 104.8547363  36.6076612  19.5536113
  75.3927755  16.0909534  41.2657499  76.2923956  16.4041615  41.1718798
  75.3106833  15.8730221  42.1941853  91.3599682  54.4151831  29.3144965
  90.6865692  55.0778675  29.1608191  91.7360497  54.6482229  30.1633143
 103.6578941  71.3041925  29.3199849 103.1201649  70.5714750  29.0196466
 104.5302391  70.9283781  29.4383240  78.6791563  53.7902355  34.0373826
  78.5924959  54.5570183  33.4710193  78.9117193  53.0777454  33.4419751
   0.6470526  46.5292549   2.7690187   1.2738998  45.9759283   3.2349882
   0.4260651  47.2196484   3.3941177  94.7240543  59.7060347  49.6663570
  93.8439274  59.3836260  49.4722939  95.2278423  58.9184046  49.8714638
  88.7982082   7.1466726  87.4438381  88.4506989   7.8269970  88.0205822
  89.1502666   7.6255721  86.6935444  65.7990503 101.0237026   0.8376088
  65.9030676 100.2057266   0.3514716  65.9605026 100.7824230   1.7497219
 102.8756905  84.1669750  48.9240551 102.3800373  83.4977722  48.4521103
 103.1724262  83.7277031  49.7210598  39.4046354  45.2067327  69.1490316
  39.7168112  44.4601583  69.6603107  40.1507044  45.4505873  68.6011696
  65.3539419  12.9717493  68.4762812  64.7884035  13.7241995  68.3024502
  66.0270500  13.0160832  67.7971697  95.2866173  32.4531436  20.6764007
  96.0929394  32.4617219  21.1921477  95.5712891  32.6481724  19.7835660
  99.1245461  32.0438170  37.2392917  99.0634346  31.4270663  36.5098286
  99.5436859  32.8181291  36.8637967 102.8909397  53.1846666  20.2595234
 102.8877831  52.2318459  20.3509045 103.4382343  53.4927464  20.9818721
 111.3613033  92.5104618  91.9378376 112.2315216  92.1157646  91.8814850
 110.9113884  92.2122097  91.1473656  91.0550213  28.2286954  18.1333995
  91.0720348  27.4814153  18.7313235  90.1245022  28.3871078  17.9744351
  86.9986820  66.0417271  39.9870324  86.6869736  65.7728291  40.8511877
  86.2132072  66.0468817  39.4400048  77.2669983  57.8359509   3.9944273
  76.9380379  58.5065508   4.5930189  76.5826797  57.1667290   3.9850867
  55.9037495  45.6565857  36.4757419  56.3462734  44.8169661  36.5999770
  54.9765158  45.4608870  36.6105604  69.7190762  26.9173288  17.4668312
  69.5452595  27.1041036  16.5442610  69.0917730  26.2311459  17.6946020
  36.1933422  98.9902115  79.1868687  36.3155532  98.0738640  79.4350910
  37.0801377  99.3485928  79.1496801  70.1239681  87.9582500  16.6881371
  69.9737167  87.8692913  15.7469988  69.2817688  88.2480240  17.0388019
 108.8161945  63.7983418  44.8675394 108.5023212  63.8880205  43.9677238
 108.0249500  63.8512182  45.4035997  69.7580004  47.6386929  31.2303686
  69.5965338  46.8521023  31.7513609  70.6392431  47.5155735  30.8775496
  60.7711172  23.7732506   1.6625683  59.9266863  24.1044617   1.9682829
  60.5501986  23.0085635   1.1308917  80.2319050  69.5391512  20.5348086
  80.5795860  68.6992502  20.8346677  80.3552246  69.5243120  19.5857012
  90.1341248  13.7863016   1.8122284  90.6407547  14.5735550   1.6127707
  89.4465256  14.0879965   2.4058814  80.0420094  28.1419992  46.9221354
  80.6788349  28.2347012  46.2135553  80.5650043  28.1919551  47.7222633
 101.2710094  59.2584705  42.4374008 101.8848515  59.1503859  41.7109442
 100.4965210  59.6559668  42.0394135  33.6104584  53.6701155  35.5283976
  33.4647655  54.5687675  35.8240938  32.7318192  53.2988548  35.4484630
  76.3562107  39.9244332  18.0326426  76.1052561  40.5353594  17.3398030
  76.2318325  39.0582156  17.6447892  62.3828030  29.1525555  17.6399589
  62.0236921  30.0300503  17.5085270  63.2487392  29.1847634  17.2333252
  50.9767675  48.4989548   5.7792228  50.0936270  48.8655472   5.7355487
  51.4509439  48.9312744   5.0689501  97.8755856  28.8020802  11.6087961
  98.6803436  29.2362309  11.3257587  97.7150154  28.1359243  10.9404504
  18.2732594  46.9368029  27.2340202  18.6112738  47.5769329  27.8602910
  17.3938286  46.7321682  27.5517607  88.5097122  71.5863323   1.8682471
  87.8350544  72.2296190   1.6508804  88.9058781  71.9177341   2.6741388
 112.8048325  92.3799706  88.9025879 112.9210758  92.4283981  87.9537010
 111.8587971  92.2996616  89.0242004  26.3660240  89.2724514  16.3039839
  25.6336164  88.6745548  16.1545134  26.1010218  90.0872135  15.8771873
  72.7287865  27.7382922  31.1784863  72.1595669  27.3023748  31.8126750
  73.4828377  27.1549392  31.0928130   0.9454130  39.9032664  22.0549297
   0.0332071  40.1870012  21.9948602   1.3862939  40.6119204  22.5236177
  82.0874596  13.4648585  39.7438908  81.2057781  13.6287844  39.4092464
  82.1830559  14.0744030  40.4757023  92.2904015  20.5498981  34.3133211
  91.7179680  19.8056960  34.1269827  92.8211975  20.2635622  35.0566220
  63.6077213   6.1734247  79.2097378  63.3225250   5.3422546  79.5892763
  64.3466949   5.9392738  78.6482000  46.8350887  48.0331039  22.4021316
  46.0577059  47.6349926  22.7938104  46.5930367  48.1824207  21.4881587
  73.6763668  45.1140928   3.2220775  74.3150854  44.5108223   3.6019939
  73.7654114  44.9930668   2.2767441  89.1637325  65.6822968   7.6801771
  88.9037991  66.6033173   7.6603967  89.6232224  65.5809593   8.5137427
  64.3086052  54.8350811  22.4508595  63.7947178  54.5138168  21.7099547
  63.6931944  55.3652334  22.9572558  26.1182261  31.5043640   2.4042150
  27.0218468  31.6715741   2.6720649  25.9831619  32.0750284   1.6476899
 101.7659664  47.7550650  20.0899172 101.6032982  46.9955730  20.6493330
 101.3244820  47.5452852  19.2669237  66.2905979  56.3516617  36.2732053
  66.5412331  57.2557545  36.0833788  65.6665039  56.4227438  36.9954824
  84.1557884  73.5466862  56.0225725  83.6201954  74.1987038  55.5706406
  84.0745544  73.7708807  56.9495964   3.4932396  81.1363411  49.1081285
   4.1367936  80.7012177  48.5489035   3.5869744  82.0664310  48.9022589
 101.4914513  63.3016300   5.8432323 101.8160439  62.4224615   6.0379791
 100.9799767  63.5445166   6.6150039  94.5606613  53.4575367  37.7870059
  94.3277454  53.7304640  36.8996000  94.8609066  52.5539780  37.6886559
  91.3009834  79.0071106  15.8129418  92.1702385  79.2736149  16.1122584
  90.6961632  79.5409632  16.3281357  47.1233559  95.2841187  15.5482924
  47.8475904  95.9056854  15.6215703  46.6014290  95.4304028  16.3372302
  42.6117992  12.5971007  85.3714848  42.3958492  13.3587337  84.8334217
  42.8762531  12.9663312  86.2140751  87.4092388  33.8286209  28.6416340
  87.5961113  33.8759756  27.7040482  86.7319012  34.4897032  28.7845421
  82.8762436  52.1335745  25.0840878  82.3015022  51.8944931  24.3569374
  82.6355839  53.0362129  25.2928090 101.7469788   6.8715245  28.7439752
 102.1151352   6.0739970  28.3636522 101.8981171   7.5450110  28.0807972
  92.3416328  74.9870539  33.2109427  91.6580772  74.8224068  32.5614190
  91.9863319  74.6350002  34.0270638  76.9153404  63.3038425  27.0179248
  77.4517298  63.7866354  27.6467538  77.3966694  63.3685493  26.1930823
  93.8112640  59.9611616  19.7515452  94.6474648  59.5450115  19.5422029
  93.4024620  60.1187563  18.9004993   1.7321540  42.5593328  13.8380873
   1.9022398  41.6611338  13.5542858   1.2812421  42.4641085  14.6770406
 110.3266525  81.9318962  84.2078590 109.7373581  81.1936569  84.0530777
 110.0476074  82.2883701  85.0512409  94.4638824  11.3341093  28.3854008
  93.6112309  11.1905003  28.7960005  94.5670319  12.2856688  28.3740497
  92.6860714  52.2671604  27.8690052  92.6330090  52.7187300  28.7113237
  93.6235428  52.1379375  27.7251625  97.0485306  28.6164379   5.1979774
  97.1628952  29.4801641   5.5943716  96.1690331  28.3462739   5.4620206
  80.4961681  63.4289312  63.7740183  80.7518578  63.0875158  62.9171085
  79.5630312  63.6230707  63.6857843  89.2899323  53.9854002   2.8936195
  88.4201622  53.6451626   3.1032830  89.1307545  54.8791599   2.5901657
 113.4769526  24.1787791  53.0689621 112.9869691  23.6692691  53.7143660
 114.3647924  24.2243767  53.4237766  80.4534340  47.4879169  28.2702708
  80.1473999  47.2859573  29.1544580  80.5696964  46.6329145  27.8559256
  92.7981281  72.6358891  13.8130355  93.2098103  71.7972326  13.6046994
  93.2663059  72.9465771  14.5879614  74.2785549  24.7349906  27.2593641
  74.2015648  25.6474781  27.5380611  73.3969021  24.4969487  26.9725680
   6.2088877  82.6652527  32.8577471   5.3395134  82.2764492  32.7615380
   6.8124199  81.9278812  32.7668405  64.6914244  81.3006115  90.9341049
  65.4288912  80.9580135  90.4291248  63.9790249  81.3726425  90.2988625
  98.9437580  47.7435255  49.0599442  99.3249321  48.4611130  48.5539722
  99.1121483  46.9626951  48.5325146  71.8590450  30.4041958  32.2466183
  72.0869255  29.4749761  32.2174048  72.6366854  30.8520961  31.9136119
 110.7928181  42.1325541  31.5441608 110.9953213  43.0615139  31.4334393
 109.8606014  42.0643806  31.3378811  51.3182545  43.5172939   4.1021776
  51.7245531  43.1515217   4.8879012  51.4482069  44.4621754   4.1830581
  73.2879734  39.4825149  18.5601103  72.8625059  38.6284971  18.6366701
  72.5886679  40.0745201  18.2830966  71.1192799  67.7682209  40.6826591
  70.1697397  67.8885412  40.6940413  71.2568426  66.9104195  41.0845137
  68.2975197  34.5525861  16.9782066  67.4131823  34.3098807  17.2525632
  68.3296299  34.3287826  16.0480928  32.4955153  42.9317427  69.0039158
  31.5428066  42.8392649  68.9991951  32.7733922  42.5067043  69.8153114
  67.2786570  61.7224026  18.0048752  66.4349365  62.1741390  17.9874611
  67.0826197  60.8369398  17.6986742 102.7293873  43.7238407  31.9990253
 102.5465298  44.0104771  32.8938055 102.9299259  42.7916050  32.0824218
  38.5792494  39.0298080  29.9064732  39.4503784  38.8747764  29.5413280
  38.1563234  39.6141505  29.2772627  76.4943695   1.0221362  71.5103722
  75.9757614   0.5210401  72.1398020  77.2330332   1.3552356  72.0199394
 110.8690548  93.2652378  34.2358088 111.0251236  92.7529335  35.0291729
 110.0332832  93.7040043  34.3945694  76.7502213  45.6282377  17.6438940
  77.5602293  46.0317326  17.3319519  77.0371056  44.8381567  18.1018186
  75.8782387  61.0225391  23.5875607  75.7090902  61.9091940  23.9060926
  75.0360727  60.5746365  23.6673808  74.7126865  75.1802540  21.9837332
  74.2631721  75.2539968  21.1418724  75.6433058  75.1885176  21.7598748
  72.8580189  77.0660305  20.6867838  72.6683521  77.9626131  20.9631968
  73.6233521  77.1476698  20.1177192 104.4678593  82.3785400  34.9882388
 104.5898438  82.0343018  34.1034484 103.8849735  81.7485809  35.4120779
  60.5221605  50.6357908  18.5320842  61.1493444  49.9147367  18.5863924
  60.4415178  50.8130121  17.5948966  61.2359715  27.0810843   5.5577850
  61.4570570  27.8795481   6.0371697  60.7687283  27.3894739   4.7813755
  72.1100235  44.6879625  16.2398422  72.4143362  45.2303934  15.5122483
  72.7833509  44.0142107  16.3342607   5.7183349  35.3199959  16.4626062
   5.9439266  35.1583862  17.3786974   4.9421537  35.8787608  16.5020561
  38.9717269  38.2932210  38.7874866  38.7454653  39.0682983  39.3015790
  38.1546712  38.0462384  38.3542967 103.5245132  92.8579235  91.2566566
 102.6614571  93.2717133  91.2449265 104.1069794  93.5288429  91.6127968
  97.8074360  49.2539120  12.1834350  96.8854237  49.2712402  12.4399841
  97.9122162  48.4215212  11.7225945  20.0974107  19.3101287  82.7008247
  20.0080657  19.0398002  83.6147022  19.2334580  19.1542089  82.3193741
  73.4992599  25.3173637  10.5522323  73.8770247  26.0713410  11.0050523
  72.6154995  25.5984449  10.3151834  85.6088543  48.4596252   9.3923587
  86.3420963  48.9247656   9.7951537  84.9494553  48.4070921  10.0842094
  74.7297716  30.3548503  24.6423745  73.8824129  30.7769489  24.7839618
  75.0140095  30.0889683  25.5168748  91.0420609  89.5338440  32.9197001
  91.0155487  89.0596867  32.0886159  91.8723202  90.0096703  32.8976083
  12.8163481  78.6102295  17.0865238  13.7411785  78.5853767  17.3320878
  12.7807963  78.1621027  16.2414503  81.0592556  18.8633525  20.7524610
  81.7048836  18.3646166  21.2531209  80.6176853  18.2085323  20.2116656
  71.1407614  55.5340147   2.3235796  70.3523588  55.1474667   2.7046716
  71.5055609  54.8407698   1.7735198 107.4003315  64.5663643  23.4548259
 107.3546791  65.3994942  22.9857373 108.0784988  64.7010517  24.1167760
 113.0035114  68.6661816  50.5954170 113.8321877  68.6856604  51.0741138
 112.3832703  69.1122961  51.1720514  80.6989956  93.8588524   3.0166978
  81.5598869  94.2368793   2.8372553  80.4540825  94.2154598   3.8705587
  85.4182720  43.5414267  23.4037161  86.0096455  44.0145826  22.8183675
  85.9985924  43.0385065  23.9751458  84.0305328  66.4618397  42.3092890
  83.7021923  67.3589039  42.3701000  83.3344364  65.9819078  41.8605614
  20.4739928  14.2962337  75.9509993  20.5078387  13.7043512  75.1994944
  20.7006741  13.7452853  76.7002010   4.4390672  87.4439526  27.6949263
   3.8817942  87.2565079  28.4502697   4.3635160  86.6658497  27.1425796
  88.2879829  73.1185055   4.5110714  88.3647346  73.8428831   3.8900939
  89.0758038  73.1814718   5.0510812  55.4088449  28.9782858  86.7796326
  55.0710726  28.1669641  87.1589661  56.1069250  28.6943078  86.1894798
  83.1832790  14.2557859   2.7867606  83.4181118  13.6932921   2.0487334
  82.2377300  14.1422188   2.8830895  73.0076218  70.7109785  19.8383963
  72.5081158  71.5096188  19.6683931  73.8611889  71.0219717  20.1399684
  88.5036659  73.5473108  17.0709991  88.3816719  74.2954874  16.4865506
  88.0265236  73.7842989  17.8662384  75.2674580  78.4099531   5.3397286
  76.0441542  77.9427338   5.6474370  74.7801065  77.7584171   4.8355308
  70.2519894  64.3475676   2.9996374  70.5157709  64.7378874   3.8328862
  69.8389578  63.5191584   3.2433012  65.7531309   1.9076541  76.7343283
  66.0950518   1.8874918  75.8405066  66.4762306   2.2501963  77.2597075
  32.1788430 101.2598610  88.9577198  32.8225541 101.5852833  88.3284664
  31.3323474 101.4342117  88.5462856  89.1873646  95.1716423  20.8949161
  88.9455795  95.8596039  21.5149856  88.6065388  95.3087807  20.1465392
  80.8282185  58.5864210  49.1892529  80.7485294  58.7128592  50.1347113
  80.3126621  57.8004599  49.0084171  77.9946518  78.2113838  35.2288270
  77.7770281  77.2801542  35.2699137  77.3027134  78.6414480  35.7313204
  32.2342443   4.0980038  29.1431713  31.2945986   4.2701936  29.2035675
  32.4675941   3.7395960  29.9995136  47.4251938  30.1281381  87.4255371
  47.5426006  31.0751891  87.4999905  47.8335762  29.9011087  86.5901279
  81.2678528   9.4882017  93.0269146  80.8052349   8.6654288  93.1858349
  80.7207775   9.9520183  92.3930264   4.0199384  68.3075142  23.3476782
   4.4332376  68.2845211  22.4846077   3.0806622  68.2925367  23.1639171
 108.8459778  77.9411364  11.3884878 108.9300060  76.9976234  11.2508178
 109.1239643  78.3298922  10.5591357 107.7985764  33.7839627  20.5585217
 107.7761841  34.4817233  19.9036467 108.5192585  33.2183027  20.2812576
 100.5906963  55.0665665  40.9486532 100.6772804  54.1319513  40.7609606
 100.1646233  55.4284382  40.1716471  91.1693382  97.5484085  36.6908574
  91.6570187  98.3352280  36.4473176  91.8166637  96.9884682  37.1194267
  92.5508404  35.1956487  24.8081183  92.1389580  35.5258679  24.0096593
  91.8289757  34.8204327  25.3124452 102.6660538  62.9354000  39.8348331
 102.0663738  63.2383776  39.1530585 103.4912395  62.7788591  39.3757153
  95.5266953   8.1420177  85.2575493  95.0834560   7.6924151  85.9770107
  95.5058956   7.5152421  84.5343971 104.3827915  61.5118313  44.0951824
 104.1207790  61.1650801  44.9480295 104.3565655  62.4623728  44.2047787
   9.1987276  84.0327930  32.7367210   8.9639473  83.8178825  33.6394525
   9.5852178  83.2279396  32.3916602  74.8222876  86.6011906  29.2127204
  74.2495203  87.1421528  28.6690974  74.3664217  85.7621956  29.2798615
  54.5214844  47.9130602  79.0334749  54.4498062  48.8636398  79.1200018
  53.7265730  47.5744390  79.4454050  93.7546062  70.8730650  34.1066933
  94.3471432  71.0032129  34.8470950  93.0343628  71.4829922  34.2662454
  82.5455475  52.5343180   9.1037357  83.0646896  52.4557972   8.3033860
  83.0271816  53.1634092   9.6408683  70.5875397  58.0913067  33.6920905
  71.2700272  58.0937195  33.0209422  69.9431181  57.4579811  33.3761024
  75.1054621  47.1443939  12.8601420  75.4961538  47.9029751  12.4263811
  75.8494806  46.6739893  13.2361639  63.1867266  60.2292871  24.1461015
  62.4528408  60.7118511  23.7656021  63.5840750  60.8444834  24.7624445
 109.3760300  72.4606085  28.2394862 110.2847385  72.6669168  28.4583735
 108.8623905  72.8781986  28.9308786  92.6880264  59.9860477  61.9093657
  91.7955875  60.3315687  61.8896008  93.2460785  60.7590199  61.8237495
  89.0137196  61.6941214  40.2589321  89.7937679  61.2772369  40.6249380
  88.3019638  61.0851288  40.4558229 103.0127716  52.5715685  12.3773396
 103.2719135  52.8750849  13.2473731 103.4790897  53.1494617  11.7733371
  28.9438224  47.7413654  87.5927925  28.4838176  48.4792900  87.9929066
  29.8242235  47.7767181  87.9667854  89.2925644  59.2634344  12.6463723
  89.8845196  58.6402130  12.2251558  88.6567497  58.7159920  13.1071019
  59.6046066  40.9949303  80.6028748  60.5107880  40.7445765  80.7828426
  59.0984011  40.2004814  80.7726765  15.0142217   9.4938219  14.8626018
  15.5032921  10.0289786  15.4876208  15.6680882   8.9015174  14.4912982
   4.3633011  34.0448689  51.1824560   4.8454913  34.8469925  51.3832617
   4.6429878  33.4227943  51.8540430  93.4734154  54.7573328  39.9960518
  93.7392712  54.1258049  39.3276787  93.4084702  54.2420530  40.8001041
  88.9667702  57.4180841  54.9862576  89.6405697  56.8024158  55.2746487
  89.3545341  58.2815552  55.1286697  84.7535801  56.8238544  13.5588300
  85.0094128  57.7417183  13.4676802  85.1927280  56.3796520  12.8335285
  89.0178299  76.6031313  27.0636964  89.3761349  76.6850424  27.9475141
  89.7864628  76.5044832  26.5018249  91.8615055  69.6133232  19.3850291
  92.0866299  69.0320826  20.1114631  92.6724243  70.0853968  19.1958451
  22.4753308  97.0559025  25.1940179  22.2650027  97.2104740  24.2730927
  22.6964140  96.1255455  25.2363181  27.2531509  22.8970766  83.6359882
  26.4113641  22.9916430  83.1902409  27.1304011  22.1518493  84.2240334
  40.4983950  15.2172184  86.6725063  40.4898500  14.3040705  86.3855934
  39.8522973  15.2527010  87.3778725  91.9299984  47.6465654  24.4845581
  91.0945034  47.2990561  24.1724396  92.1570301  47.0908308  25.2301073
  63.9820385  50.6968403   1.6335043  64.7892284  50.4881668   1.1632560
  63.9638996  51.6533327   1.6654591  93.6320305  68.1734133  29.6517015
  94.1495609  68.1902170  28.8466454  94.2645454  67.9631948  30.3386974
  77.2691154  59.6137285   6.2940192  77.0525980  60.3166628   6.9065833
  78.2137966  59.4938707   6.3912004  49.4578171 102.5209999  63.5281324
  50.3325081 102.6705265  63.8870001  49.4347620 101.5835571  63.3360672
 104.0801620  68.0197716  27.4073577 103.6254311  67.1794271  27.4645543
 104.3609619  68.0784893  26.4941573  77.2199249  65.9031248  30.1709509
  77.6457644  65.2044106  30.6676292  76.4337111  65.4945898  29.8087358
 104.6446228  89.9327660  18.5864580 103.9353848  90.2011013  19.1705823
 105.2399540  90.6821728  18.5725486  55.5158901  17.5351608  90.6776333
  55.0111723  17.3223543  89.8926449  55.0739527  18.2999146  91.0465240
  63.2282209  11.2934208  59.2163229  62.8140068  10.6262004  59.7635698
  63.7942553  11.7782640  59.8169613  71.9175816  62.2575331  28.3712864
  72.7524424  62.2216129  27.9044342  71.4587927  63.0033016  27.9845357
  84.8544312  97.4366093  30.0575781  84.2999458  96.9844151  30.6934190
  85.0903606  98.2586956  30.4874063  96.3514042  75.4289579  47.3610067
  95.8966255  75.1019192  48.1371832  97.1327019  75.8614254  47.7056408
  80.2151775  83.3964729  17.7310777  80.2127552  84.3536568  17.7351117
  79.9143505  83.1525040  18.6064172  86.3513374  43.5557032   1.7372826
  85.8303165  42.8540707   2.1277703  87.2084045  43.4793901   2.1566141
  77.4788475  71.1631155  16.5841269  77.5669813  70.2480745  16.8508923
  77.0704222  71.1222315  15.7194018 101.0154343  89.7689342  16.4736295
 100.2128029  89.5325661  16.0087276 101.5649414  90.1824474  15.8078313
   4.7005275  52.3060465   9.0392351   3.8268813  52.5504541   8.7338835
   4.5446077  51.8289757   9.8542947  82.4111748  84.0050316  35.3870416
  82.6791286  83.7760735  34.4970942  82.3696041  84.9613285  35.3861022
  99.9172211  84.2027378  26.9824290 100.5699158  84.8245430  27.3042536
 100.0764751  83.4054279  27.4875665   0.1399602  78.8140154  53.4086418
   0.6936286  78.1629086  53.8396215   0.6497727  79.6233559  53.4444666
  87.4778271  74.7652054  19.3994188  87.2641468  74.6400213  20.3240275
  87.0778370  75.6047440  19.1726887  73.1988287  33.7853670  29.9451852
  73.9694500  34.3468475  29.8608375  73.3540154  33.0712008  29.3270302
 112.9433537 100.1145267  12.2807646 112.5598049  99.8125076  13.1041181
 112.1932793 100.3912926  11.7544329  86.1262894  50.7060480  21.0591626
  85.8120155  50.8219528  20.1624846  85.5207920  51.2199545  21.5934896
 110.5421734  58.5651588  47.0240021 110.0479507  59.0474129  46.3611269
 110.2726650  58.9560223  47.8551626  24.3226576  10.2267528  78.2540894
  24.9471354  10.7434869  77.7449322  24.8636365   9.5915234  78.7231922
  97.8350353  60.1968384  64.4416094  98.0345917  59.4152880  63.9262581
  97.0692158  59.9521065  64.9610853  99.9222660  67.5360727   5.5326599
  99.1586685  68.1042290   5.6344062 100.0270939  67.4430084   4.5857799
  17.1707010 106.4551067  71.2033653  17.6715243 106.1175728  71.9459867
  17.0016384 107.3708439  71.4248800  52.4154520  10.0366163  87.9813004
  53.0785370  10.1435816  88.6632919  52.0226145  10.9047985  87.8909111
  97.7899742  71.1967373  60.8039618  96.8336391  71.1683369  60.7748652
  98.0068684  71.0267687  61.7206430   4.3293652  59.3283319   3.6655575
   4.7844794  58.7831688   4.3073517   4.0062863  60.0742197   4.1710284
  37.8129745  62.6507521  40.5475521  38.1698680  61.7718315  40.4196596
  38.5391140  63.1525660  40.9178734  35.2210617  39.9134040  83.3029366
  35.5572796  40.2490807  84.1339016  35.9119534  40.1069164  82.6693249
  13.8929439  28.4755993  81.1091614  13.4345973  28.3881521  81.9449234
  13.3895612  29.1319561  80.6274605 104.4362831  83.9514160   1.5405025
 103.5726738  84.2727566   1.2813675 104.6447945  83.2770252   0.8940119
  67.4687243  73.0863380  17.5827026  68.0824327  73.8205576  17.5600004
  67.1287060  73.0306864  16.6896617  62.3383141  67.3341084  32.3069906
  61.4164877  67.1175337  32.1671295  62.8181410  66.6698027  31.8123221
  69.1474247 101.7829323  17.1353555  68.5875654 102.4091434  16.6763937
  69.3685055 101.1286926  16.4725399  98.0088997  34.7342420  60.7076931
  97.3254967  35.2088404  60.2344608  98.8063717  34.8972869  60.2040195
  89.0212250  53.9161968  35.0965166  88.8492012  54.8562527  35.0423694
  88.1526184  53.5150099  35.1249075  90.8343315  88.6679840   8.2419384
  91.6198349  88.9873219   7.7978170  90.6630421  89.3184853   8.9229208
   9.4842374  87.0513821  33.0819201   9.9549556  86.2901020  33.4211898
  10.1557052  87.7275848  32.9918814  73.2356596  70.3767586  36.0714483
  73.5717297  69.5362949  36.3827658  72.2877598  70.2526712  36.0232878
   3.6858517  62.6703548  38.5401273   3.5100034  63.4951830  38.0873895
   4.3412679  62.2335720  37.9961801  75.0031233  60.5078554   4.5886022
  75.5170441  60.2350664   5.3486693  74.9852800  61.4633989   4.6419781
  72.3734951  13.1708884  81.7294598  72.3239660  14.0332568  81.3170242
  73.1070232  12.7381885  81.2924957   3.0002254  39.9293804  25.8347106
   2.6305699  39.2244291  25.3030801   3.8659859  39.6093917  26.0882783
  95.9649563  69.5097494  47.9163074  96.3081074  69.7698069  47.0614100
  95.0446129  69.7719145  47.8948116  75.5893993  87.5031376  34.5957971
  75.5160379  87.7649021  33.6780119  75.1769066  86.6401577  34.6324348
  58.9897394  59.3218231  23.9535737  58.3445120  59.8409367  23.4735322
  59.2487669  59.8800898  24.6866989  88.5555840  46.7949486   2.2937417
  87.6975822  46.5601063   2.6471558  89.0563107  47.0876741   3.0552000
 102.8339195  79.9907303  27.0804501 102.4917412  80.8226299  26.7532086
 103.7423515  80.1808929  27.3145771   9.5220858  70.1243544   8.0574888
   9.6687138  71.0136986   8.3796668  10.2709937  69.6250916   8.3832264
 106.0084248  94.5491791   6.9168639 105.7237434  95.3328228   6.4466619
 105.4447556  94.5156002   7.6897669 104.2451859  59.0161324  12.6979625
 105.0803757  58.6447144  12.4138176 103.8257599  58.3119678  13.1923926
 109.8000431  81.3247013  19.0870059 109.5511341  81.5696716  18.1957924
 110.6951809  81.6497135  19.1835845  96.1440563  75.9189129   9.2646086
  96.1355591  75.8348417   8.3111459  96.8562698  75.3462219   9.5492136
  48.0537653  13.1145620  90.3146744  48.8332510  13.2175410  89.7687626
  48.1027460  12.2137594  90.6346607  22.1501279  55.3645563  23.1776094
  21.9115043  56.1812353  22.7390599  23.0435610  55.1869726  22.8835464
  18.2020795  68.9788055  59.7267914  18.0218351  69.9179506  59.7686148
  18.1641877  68.7689734  58.7936401  77.1127272  72.6297760   7.9510218
  77.0771503  73.2227230   7.2004354  78.0153370  72.6926947   8.2633823
  92.4959850  76.3039923  12.6383758  93.2599068  76.3155127  13.2150245
  91.9935799  75.5400562  12.9216194  31.6434693   8.8677084  19.3029177
  31.1948442   9.5028394  19.8611081  32.1771240   8.3522129  19.9076557
  90.8584595  63.5180902  33.8801193  91.4076900  63.3384800  33.1170201
  90.6585693  64.4520473  33.8168573  58.6665916  68.9717722  15.8250904
  58.2406712  68.7485313  14.9974501  58.1117630  68.5726929  16.4952648
  89.8323345  99.3761253  44.4118786  89.2404842  99.7349262  45.0730944
  90.6464767  99.8659134  44.5281172  51.1890411  17.1617424  79.7317600
  52.0126677  17.6147580  79.5510721  50.5419111  17.8628492  79.8085642
 108.1225395  87.7906227  65.6902075 108.7235832  87.2861481  66.2383747
 107.6173592  88.3167362  66.3100719  82.1624088  55.5458498  40.4399967
  82.3955536  55.5127144  39.5122147  81.9483852  54.6405840  40.6656551
  67.2163773  79.3137217  19.2453980  66.5500689  78.6513090  19.0624428
  67.1497059  79.4665527  20.1879621  92.2460461  83.5633183  20.9342074
  92.3324108  82.6535225  21.2188816  91.3466167  83.6295795  20.6134748
  92.4975777  64.2915821  27.5511789  91.7976570  63.6723948  27.3439169
  92.2707081  65.0821781  27.0615602   3.5788259  72.5557899  18.7445939
   4.1467357  71.9698286  18.2442296   4.1821980  73.1431150  19.1998065
  84.4092560  67.1236134  24.5443583  84.1203308  67.4387312  23.6879373
  85.2241230  67.5972366  24.7114134 103.2541180   1.8111002  83.9523411
 102.6138306   1.2753871  84.4206142 104.0309334   1.2554097  83.8892174
 110.5654526  75.2630424  26.3269019 111.4037704  74.9781513  26.6906261
 110.7744122  76.0594940  25.8388114  92.6493740  56.0677767  22.4998713
  91.9337177  55.4338980  22.5474596  92.2926426  56.7937803  21.9881105
  93.6218262  57.8953743  40.1946354  93.5999107  56.9696903  40.4372501
  93.0315876  58.3201504  40.8170605  49.0977859  24.4624829  81.5716839
  48.7613106  23.5863948  81.3833141  49.6276999  24.3509364  82.3609734
  52.4819183  58.3984089  24.0802407  52.8787422  58.2105350  23.2296729
  52.5643206  59.3469620  24.1787028   8.2145602  33.2220483   6.6765451
   8.0818707  33.8129735   5.9353077   8.7919867  32.5381589   6.3372695
  83.3592510  93.4840679  38.5286522  83.9747238  93.3449745  37.8088832
  82.9487610  92.6295948  38.6612916  80.5477238  49.9504185  26.5424109
  80.0223255  49.1806078  26.3242698  80.4358959  50.0568676  27.4870777
 106.8275356  58.0417967  11.7126954 106.9166851  58.8501453  11.2078631
 107.5168419  58.0955648  12.3746526  73.8160324  69.2999697  22.4828172
  73.1446743  68.6222553  22.5616264  73.5854769  69.7737122  21.6836619
 100.6295586  64.1133785  38.7417769  99.7415829  64.2084074  39.0862989
 100.6021404  64.5433950  37.8870463  70.0749922  17.6658356   4.1465557
  70.5890512  17.0022845   4.6066341  69.9886799  18.3812916   4.7765592
  96.1709785  80.6811333  62.4581051  97.0496178  80.5524445  62.8154039
  95.8482075  79.7955751  62.2912502  93.4954834  97.0630169  53.6685038
  94.0687656  97.5578213  53.0830669  92.8404713  97.6989555  53.9561939
  31.8183041  12.5656331  87.0712280  30.9147024  12.3755455  86.8190289
  31.8102050  12.5407124  88.0280685  68.2556391  62.7925873  10.4901409
  68.4586525  61.8575478  10.4632342  67.3008108  62.8320360  10.4355001
  89.4054699  77.8094578  22.2413659  88.9795494  78.6666679  22.2433209
  89.5173454  77.5997066  21.3141537  45.4743576  31.5606260  90.8386898
  45.4971981  30.7029247  90.4143524  45.1010036  32.1445894  90.1785278
 102.2657681  45.0939894  51.9442320 101.5487194  45.5581188  51.5121984
 101.8362617  44.5541954  52.6078415   7.8930593  80.3600693  21.4076614
   6.9989657  80.4234886  21.7435265   8.3001947  79.6752310  21.9382000
  65.8847666  14.5625126  78.7908220  65.1981735  15.1128519  78.4140587
  65.5189466  14.2581105  79.6213293  97.5055122  63.7198639  44.9081421
  97.6376438  62.8004026  45.1391363  97.8035164  64.2052937  45.6774187
  74.2476559  53.5007715  38.5222960  73.6519289  52.7565145  38.6084175
  73.7393141  54.2512846  38.8297892  95.0445747   1.0840987  92.4732018
  95.0470543   0.1273150  92.5013161  95.1484299   1.2967277  91.5457153
  91.0713959  72.0693588  59.0570974  91.7713737  72.5326967  59.5170736
  90.6467628  71.5433264  59.7347498 106.0829258  31.3621569  58.5795116
 105.5680561  30.7289052  58.0793810 105.4417706  32.0034027  58.8860369
  94.1335297  74.9379969   1.1235115  93.5356045  74.5269871   0.4991898
  94.7436810  75.4353714   0.5789303  87.2556305  64.8126507  49.2916441
  87.1552944  64.3851805  48.4410954  87.8506088  64.2418480  49.7778702
 104.3105793  92.7534962  17.1317589 105.2356529  92.7166653  17.3748875
 104.2744160  92.3487759  16.2650859  79.2666006  70.9130621  25.5587053
  78.6862230  70.3653145  25.0301552  80.1409531  70.5564833  25.4019046
  11.4473820  69.7816038  86.7879772  11.7528033  68.9932919  86.3390636
  10.9725499  70.2710009  86.1162186  87.7568817  55.4954481  18.9071953
  88.3994579  56.2028456  18.9611709  88.2790756  54.7091198  18.7483931
 108.9949417  38.2678246  19.5932662 109.1833210  38.3235669  18.6564434
 109.5997429  38.8905001  19.9966550  48.6328983  13.5590780  79.1501999
  48.2644033  14.3548512  78.7665510  47.8732920  13.0763197  79.4760370
 107.6585865  58.7966633  23.3663940 107.7189922  59.7414732  23.5075188
 106.7468166  58.6499071  23.1146336  11.1229181  29.4831562  54.1394997
  11.1057508  30.1658964  53.4688282  10.6642139  29.8689508  54.8858166
  18.4325123  78.3438873  34.1697907  17.7073693  78.0924129  33.5978103
  18.0129409  78.5910463  34.9938679   3.5361072  91.0497379  39.8867178
   2.6439518  91.3646507  40.0320435   3.4387782  90.3378391  39.2542911
  69.7778893  78.0255604  10.0474632  70.0177002  78.7379217  10.6401408
  70.4909945  77.9942799   9.4097042  80.3263378  71.3191509   6.7477685
  80.6182480  72.0822716   7.2464347  79.6482372  71.6594791   6.1641651
  51.3295841  53.1973600  77.7921867  51.6870928  52.3789454  77.4477768
  50.9418106  52.9543018  78.6328936  97.9143143  63.9903116  15.2447760
  98.6070156  63.9157486  14.5883906  97.5637627  63.1032228  15.3248787
  86.7339897  57.0084143  40.7398653  87.2019196  56.8261480  39.9249721
  85.8855915  57.3501635  40.4576015  57.2387600  13.9796972  28.4644389
  56.6629267  13.3076799  28.8291883  56.8724585  14.1654384  27.5998259
  86.5368462  55.8399677  11.4319789  86.9190788  55.5266237  12.2517025
  87.2155190  55.6824064  10.7756138  83.0619431  61.2244511   7.0367199
  83.8838005  61.5154982   7.4317813  83.3274269  60.5874968   6.3733649
 101.3919258  78.8991928  31.9362760 101.2681580  78.1033516  32.4535251
 101.6698456  78.5848713  31.0759306 102.5782585  65.7906008  28.7771320
 101.6833687  66.1217546  28.8529468 102.6033592  65.0324726  29.3609476
  88.4042740  49.0554285  25.6765151  87.8555870  49.4009972  24.9724174
  88.0855846  48.1631517  25.8125472   3.2737172  70.2185583  36.8076277
   4.1803715  70.3208017  36.5182233   3.0060399  69.3675947  36.4605784
  97.3254299  75.7758570  13.6608922  97.7976418  76.0632563  12.8794503
  97.1841049  74.8390484  13.5243332  72.4518919  67.3400307  48.1532717
  72.9872227  67.9060602  48.7093830  72.5330162  67.7184153  47.2777891
  84.3325615  39.6661639  16.2321436  84.6890354  39.0747857  15.5692446
  84.7817898  39.4186759  17.0403397  86.5465832  80.0348473   4.3763041
  85.6930447  79.7637558   4.7142488  86.3995934  80.9165573   4.0339458
  10.8216763  68.9801121  46.7303085  11.1708534  69.7932339  46.3654232
  11.5897214  68.5207129  47.0698452  99.9321938  53.0986023  12.5627947
  99.7605896  52.8879309  13.4806192 100.8812618  53.0143356  12.4711120
  89.6338940  38.0225825   9.6714395  89.8914337  38.5403967  10.4341793
  90.3150368  38.1975555   9.0220875  34.7794604  18.3619142  86.4886856
  34.5343137  19.2722702  86.3231945  35.5923080  18.4202456  86.9907951
  87.3823452   6.2510628  84.7231007  86.7639351   5.6150728  85.0827122
  88.1822872   5.7478237  84.5711899 104.6636486  37.8041101  62.7880573
 104.4612026  37.0442772  63.3338594 105.5824852  37.9958224  62.9757118
  66.0116100  79.5014858  13.2837057  65.7615757  78.5787344  13.2362926
  65.1800013  79.9754477  13.2803655  86.5783405  86.4835644  20.8844018
  86.4974976  87.3563099  21.2691069  87.2931194  86.5653801  20.2530360
  86.7410564  69.9234438  24.9672818  86.7459774  70.0140715  24.0143943
  87.6585960  69.7795773  25.1989365  82.9090786  65.3329134  18.1348956
  82.4822521  65.2269888  18.9850938  82.2564220  65.0362873  17.5006354
  91.8330956  83.0745220   2.3531799  92.7832794  83.0696964   2.4688308
  91.4839840  83.1417370   3.2419056  94.0132523  33.0916238  30.8154321
  93.1786346  32.9528475  31.2630725  94.6586132  33.1377792  31.5208507
  98.1573486  78.4741831  32.4047518  97.6435375  79.1620350  31.9815588
  98.0930042  77.7269220  31.8100286  47.3074913  52.0234346  11.5392625
  47.4563408  52.7974606  12.0823586  48.1147528  51.5154362  11.6198790
 102.6323032  68.8841200  22.9847240 103.5436726  68.6822271  23.1965542
 102.1233749  68.4189892  23.6487079 110.4775620 103.3079052  39.5272374
 110.0764847 102.4787331  39.7877049 111.0958099 103.5062790  40.2305555
  19.1871548  91.7171288  29.5558810  19.9970043  91.5397167  30.0343156
  18.5715568  92.0106220  30.2275467   9.3285286  75.4831457  26.3833904
  10.1865423  75.3729677  25.9736276   9.4518495  75.1795244  27.2827458
  26.4143705  59.9713421  55.5175972  26.5648150  60.5171061  56.2894392
  26.5944457  60.5497503  54.7764826  99.6414471  89.9858952  42.5398684
  99.2131901  89.5324516  41.8137693 100.1991844  90.6397152  42.1183491
  14.4827628  62.7837038  33.7654066  15.3469872  62.9211950  34.1532779
  14.0809774  63.6524868  33.7615991 105.4697609 102.8610516  22.1419048
 104.8728848 103.3026218  21.5377569 106.3231754 102.9054546  21.7106962
  47.5654173  96.1016655  48.8470888  48.0521441  95.3363514  48.5411119
  46.6809511  95.9761906  48.5032797   5.3449750  50.6749630  19.7465920
   5.7190645  51.5270233  19.5223510   5.8113569  50.4097557  20.5393004
  88.3964348  45.2632523  13.4359550  87.4568462  45.1034307  13.5246933
  88.4946823  45.6329584  12.5585198  95.9500027  69.2169428  17.3821163
  95.9296131  68.3984280  17.8779483  96.0677242  68.9430904  16.4725113
  83.6272335   8.7183040  67.8007364  83.6405945   9.1270113  68.6661911
  84.3186474   9.1664290  67.3135376 105.4403114  62.7473927   7.2138512
 105.8372688  61.9303989   6.9118965 104.8501778  62.4807549   7.9187423
  72.0460129  21.7840838  71.8853378  72.5472498  21.1551714  72.4044323
  72.4645042  21.7716789  71.0245562  97.7839851  76.5136766  19.7375298
  97.2060394  76.4439821  18.9776862  98.6628151  76.3782215  19.3832278
 102.3647881  81.5078545   2.1221204 101.4637470  81.4691162   2.4428493
 102.5744343  80.6039429   1.8871151  99.8274994  55.3028679  18.0805087
  98.9531898  55.6892395  18.0303073  99.9126434  55.0204802  18.9911342
   8.7427074  96.6266060  27.5447822   9.4325930  96.4379025  26.9086361
   8.6458206  97.5785065  27.5177360  31.3778758 106.3238621  86.3488388
  30.8708310 106.2335682  85.5420113  31.7413688 105.4517365  86.5021610
  18.9227068  87.4989796  27.1529627  19.7920084  87.1176147  27.0300746
  18.8673723  87.6711178  28.0929303  16.2276435  84.1646194  42.0403099
  15.9470785  85.0176907  41.7089891  16.7650115  84.3697643  42.8054142
  26.4784622  97.5570011  87.7411842  26.8110228  97.1675587  88.5498714
  25.5881214  97.2152233  87.6592350   1.3395999  90.1922417  25.4440236
   1.5506846  91.1147213  25.5879211   0.5874973  90.0271130  26.0126257
  14.4689250  65.8887577  35.4894948  13.9687717  65.5176067  34.7626328
  14.9933052  66.5826416  35.0897694 112.1646500  57.3147678  15.5524969
 112.1313381  58.2238054  15.8504415 113.0688381  57.1902180  15.2641094
   5.9810179  66.2973118  23.5499048   5.8938378  65.5943441  24.1936970
   5.1198375  66.7148256  23.5330677  97.6275826  69.3435287   6.1256588
  97.4327755  70.2806950   6.1273456  96.8117523  68.9298153   5.8437192
  97.6104259  99.1735935  54.3446636  98.2804680  98.7571621  53.8025761
  98.0857277  99.4874763  55.1139498  84.0331459  39.3586397  28.5114574
  84.6434498  39.8623395  27.9728866  83.3296967  39.9746680  28.7161422
  47.4964762   4.6439993  61.8651295  47.2988796   5.5334836  61.5718603
  47.6151657   4.1459671  61.0563564  96.3157845  45.4934168  76.4680147
  95.5155849  45.0121069  76.2576580  96.9201374  44.8244190  76.7896271
  99.2746925  61.8617392  24.5389128  99.5655060  62.7735901  24.5252466
  99.5860958  61.4985752  23.7098336  87.0664597  92.5107002   3.2538787
  87.3143959  93.4340382   3.2070884  86.5455437  92.3622894   2.4646677
  70.7441521  72.3754311  54.9869728  70.5086660  71.8200397  54.2437935
  70.2387381  72.0225859  55.7192945  99.9923992  66.7644072  37.1724176
 100.4564190  67.4975538  36.7681718  99.7014809  66.2288523  36.4343262
 112.1410561  66.1626196  37.9602861 112.5484371  66.8759823  38.4516072
 112.7772045  65.4486561  38.0028343 106.9279957  28.6255646  91.5013790
 107.1732044  27.7455020  91.2157249 107.6978207  28.9485741  91.9696331
  37.2531557  93.9612770  60.9380627  36.4326644  93.6056614  61.2794733
  36.9813728  94.6040821  60.2829504  26.7380738  69.5157194  18.3847404
  27.1036363  68.6756945  18.6621356  26.1923933  69.7940540  19.1202629
 100.0501537  57.8982496  35.1384568  99.8606491  58.3691835  35.9499621
 100.3089428  58.5813951  34.5199323  82.8824902  43.3477211  88.0039501
  82.2609138  42.7177095  88.3685970  82.9409122  44.0369368  88.6656189
  10.3235614  92.9155731  24.1679215  10.0325942  92.0212173  24.3459344
   9.8735565  93.4487534  24.8232484   0.5679265  82.9359055  47.8664303
  -0.0201780  83.6283207  47.5648832   0.6618755  82.3556137  47.1110058
  45.1265717  26.5362167  91.4475536  44.2657948  26.5228629  91.0290909
  45.7439423  26.6325378  90.7224274 102.6989651  66.2339497  40.5076694
 103.4633923  66.0446167  41.0517550 102.1445847  65.4585791  40.5953741
 105.7699966 100.0518799  30.8810186 104.9001884  99.9564743  30.4929876
 106.2547016 100.5880833  30.2535033  88.6553574  90.1128387   4.0831512
  88.0478287  90.8478546   4.0001464  88.5774899  89.8397923   4.9972725
   3.3334482  76.1728477  31.6413045   3.6114702  76.3713789  30.7471442
   2.6577991  75.5026054  31.5388060  62.0908546  89.8046970  48.1150389
  62.1088505  89.0798473  48.7399340  62.1742153  89.3849277  47.2588444
  92.5865746  59.0211964  32.0283651  92.6493931  59.2133379  32.9639745
  93.3882236  58.5377073  31.8287921  83.7984848  60.4230118  58.9378548
  83.2762241  61.1479807  58.5944986  84.2096424  60.7765484  59.7266436
  93.0529785  64.3033886  22.2135305  92.1136570  64.4281387  22.3489428
  93.1345940  63.3948088  21.9236135   1.6539997 105.0712109   3.8372916
   1.3444486 104.7153568   3.0043614   1.3397998 105.9753609   3.8430205
  97.5443077  72.0687485  38.8709545  96.7885208  72.0777035  38.2836413
  97.1648693  72.0346832  39.7490764   7.6854724  64.4658470  43.7090397
   7.4140048  63.7563944  44.2914534   8.2431674  64.0407419  43.0575085
  26.5704560  78.7524223  92.0501995  26.4836788  77.8869629  91.6506004
  25.7329369  78.8981676  92.4901485  49.6965075  84.2180920  51.2062740
  49.1585112  84.1576195  51.9956636  49.7074223  85.1515770  50.9947968
  74.5296001  72.7436924  48.9346266  73.7293291  72.2308445  49.0476847
  75.0986671  72.1858311  48.4043550  29.9338126  16.6106856  74.2925119
  30.5687070  16.3043463  74.9400425  30.4339385  16.6759682  73.4789753
 113.0352974  52.5921297  64.5564842 113.9680004  52.7043819  64.3729353
 112.7192783  52.0252132  63.8529396  78.8395596 102.5323677  37.6801729
  78.3940125 102.9163170  38.4353566  79.7708559 102.6582146  37.8620553
  90.9879208  98.3557987  10.5359936  90.2719498  98.4664154  11.1616051
  90.6299496  98.6674595   9.7047567  15.8246589  52.7549505   4.8138931
  16.5805376  53.2320547   4.4714743  16.0941601  51.8366003   4.7987655
  10.0729513  83.0156231   7.0174360   9.8632437  82.1664333   7.4061924
   9.4569629  83.6243629   7.4251419 108.4099293 103.5328579  14.6222627
 109.0315914 103.0355835  15.1537538 108.4548283 104.4230366  14.9712539
  88.1579399  69.1993618  32.6352167  87.7855110  69.2233038  31.7537642
  87.8745556  68.3576345  32.9921842  14.7388983  75.6269884  17.8097653
  15.4042375  74.9897575  18.0695581  14.3183625  75.2355528  17.0441568
  95.3363132  87.4712372  22.6118731  95.1680279  88.4129715  22.5795054
  95.8906555  87.3006821  21.8503976  80.1220036  80.5499172  51.9557238
  79.9011850  79.6188736  51.9806099  79.7341156  80.9094810  52.7535295
  92.6815701  69.7534704  40.3341436  92.4323082  70.6182003  40.6602430
  93.5886669  69.6424484  40.6188679  81.2841988  72.2938442  12.7363813
  80.7511902  71.5709114  13.0673003  81.6249275  72.7198029  13.5229516
   1.6429280  69.0646982  70.0858545   1.5674986  68.2805109  70.6295395
   1.8788143  69.7600746  70.6998873  92.9874134 100.6538868  77.5090885
  93.9192295 100.5073929  77.6718521  92.6949120 101.1829090  78.2512522
 108.5358715  87.5513840  32.5648618 109.1406441  88.1111336  33.0518556
 107.7913761  87.4330044  33.1547213   9.7079039  91.8289375  70.0326443
  10.3316653  91.1644745  70.3253078   9.5015281  92.3282528  70.8227873
  82.6171207 101.8068886  10.6869793  82.9722977 102.3894882  11.3582909
  82.5361252 100.9591484  11.1240292  64.8832321  41.6093540  92.8357220
  64.1001844  42.0576763  93.1552029  64.8233652  41.6727066  91.8824959
  95.0203705  66.2295914  31.7847490  94.4380951  65.5512238  32.1268106
  95.0492001  66.8912697  32.4758220  27.1178031  75.9690857  12.2057128
  26.4416862  76.6041660  11.9695556  26.6525078  75.2988434  12.7062237
  91.6674328 104.6869087  10.5266953  91.4406395 105.6151962  10.4712319
  90.8644772 104.2617702  10.8279431 107.3916817  40.1667070  86.6346359
 107.9765511  39.9756074  85.9013939 107.9774666  40.4142952  87.3500252
  88.8613033   3.8266510  23.7309313  88.0327702   3.4078440  23.9640665
  89.5049858   3.4258598  24.3151236  82.3389053  62.4932194  92.4521160
  82.2791100  63.4385777  92.3144722  82.1334648  62.3726940  93.3792114
  58.3724546  33.3724189  13.0900276  57.9528713  32.5716805  13.4046698
  58.9317083  33.0824924  12.3693275  80.0550461   6.6329634  25.7330847
  80.6869125   7.0592946  26.3120627  80.3175640   5.7124776  25.7284117
   1.5953697  17.1350551  80.6544590   2.1418884  16.6705894  80.0205612
   1.4261930  17.9848218  80.2476311  65.8840084   6.2510645   2.4596927
  65.7346058   7.0294559   1.9230205  65.4067421   5.5543047   2.0091647
  31.2529469  89.5055485   9.5643395  31.9163918  88.9192867   9.2005146
  30.4941487  88.9426231   9.7178799  54.9804831  26.2788367  26.5626979
  55.8195639  26.1613297  27.0080829  54.8592424  25.4712892  26.0632992
  71.4968300   4.8356703  48.5512924  72.4531841   4.8004133  48.5706902
  71.2185717   4.0371850  48.9998674 100.8822727   8.9084160   4.2635953
 100.6246948   8.9415318   3.3422989 100.0646877   8.7494367   4.7353104
  71.4482260  20.6724334  16.0956466  72.3554420  20.9110951  16.2859964
  71.0325623  20.6062198  16.9553375  81.7643261  58.0837393  23.6481810
  82.4740028  57.8034210  23.0702400  81.2531662  58.6967802  23.1198525
  34.4094586  97.9219341  39.4276285  33.9264917  98.5774708  39.9308705
  35.1189661  98.4130192  39.0132952  84.3128109  51.9817019  22.5728202
  83.4755516  51.5560246  22.3883629  84.3450356  52.0432091  23.5274982
  55.8439541  32.7893758  24.8146224  56.4044476  32.7656913  24.0390444
  55.7513046  31.8718958  25.0712872  92.2120953  76.9477510  87.9190540
  91.2864876  77.0862103  88.1198025  92.5384712  77.8160667  87.6829720
 102.8080177  68.4934568  86.4429569 101.9799709  68.6493921  85.9887886
 103.0393791  67.5926352  86.2166405 111.9627762  98.1201267  79.9294519
 111.1048985  98.5200024  79.7866774 112.4278450  98.2494164  79.1028786
  14.4484961   2.4338500  22.9745984  13.9214849   2.3621269  23.7704301
  13.8361120   2.7478275  22.3092890  54.7476864   4.0079612  37.3541856
  54.8167753   3.1748378  36.8879628  54.8637247   4.6726862  36.6752839
 111.0972214  96.4951611  92.4811840 111.6959953  95.8099270  92.7780819
 111.5234756  97.3130989  92.7371597  59.5712280   1.7406915  13.1707990
  59.2013788   1.3953772  13.9833272  59.0512466   1.3325489  12.4785018
   1.4366403  83.0191803  77.6638651   2.1255945  82.3546791  77.6642179
   1.7623857  83.7016106  77.0769930  91.2415981 103.2284641  86.6800213
  91.1954021 102.2738552  86.7330551  90.3296280 103.5153770  86.7271423
  49.4943714  12.7868032  26.5689611  50.0005341  12.3612213  27.2609997
  49.8460340  13.6760914  26.5273571  29.0168667  76.0644722  78.9067936
  28.4057045  75.5960321  78.3382177  28.4616852  76.6410112  79.4317770
  93.0090141  66.4252567  90.5065632  92.4006081  66.4693165  89.7689152
  92.7019310  67.1009636  91.1110020  69.5442533  47.9607248  17.5663900
  70.3008842  47.7762270  18.1228983  69.1729784  48.7662506  17.9262710
  13.0315709  68.0545616  68.4605360  13.9337289  68.3058405  68.2625389
  12.9209650  68.2691383  69.3867970  77.4846792  27.5033307  28.1231070
  78.1309700  26.9859886  28.6036277  77.9142523  28.3458638  27.9753280
  -0.0930739  70.1897860  73.2428789   0.1865244  69.6555042  73.9862490
   0.6905699  70.6782198  72.9907703  67.4301910  32.7612710  33.1166244
  68.3442926  32.5390625  32.9397845  67.2055483  32.2501373  33.8941288
  20.9540963  94.3209553  20.2299142  20.2281237  93.6971378  20.2232575
  21.7033458  93.8132000  20.5414224  63.8235044  89.3809128  84.6370316
  64.1255283  90.1458073  84.1471767  64.4471455  88.6906147  84.4116783
  82.9269886  15.5847275  11.4465284  82.6345348  16.2377203  12.0823789
  83.6275482  15.1108980  11.8947864  64.1905928  20.3171539  32.0551300
  63.4697199  20.3474164  32.6841474  64.6448374  21.1516881  32.1710801
  98.8656807  19.0477514  81.2509060  98.0111599  19.4403791  81.4294529
  99.2408657  19.5943630  80.5604839  86.7834568  23.9155674   2.1037421
  86.7977428  24.8557425   2.2829096  86.5884113  23.8528657   1.1687252
  32.6946449  90.9246254  60.0182772  32.8356051  91.8210030  59.7135401
  33.1750631  90.3810215  59.3938351  63.1844759  20.4410195   3.8798398
  63.0562401  21.3370228   3.5684466  63.3303976  20.5332398   4.8213458
  63.4262991  43.5911465  24.2389202  63.6194754  42.8249645  23.6986637
  62.4708652  43.6109304  24.2935920  25.0356793  87.3292446  37.7463436
  25.7284617  86.6986752  37.9430056  25.1337552  88.0086327  38.4134531
  80.6058598  15.1210344  14.0890253  80.0756741  15.8687019  14.3649244
  81.4786339  15.3051460  14.4363189  27.9717255  71.3906240  76.9917440
  28.2575870  71.5935993  76.1010599  27.0193911  71.3190460  76.9271851
   1.9280101  66.6697836  77.4177647   2.1792559  67.5892353  77.5056124
   2.3756556  66.3738441  76.6251326  70.4059362  30.7291722   6.2303358
  70.1821947  30.1118922   5.5338192  70.9343958  31.3988757   5.7962167
  28.0207539  84.4596100  83.3863926  28.5786819  85.2103519  83.1830883
  28.5988474  83.8481712  83.8426590  80.6303883  59.5583534  82.0021057
  80.7675362  60.5053520  81.9773674  81.4353466  59.2096806  82.3851109
  91.0153770  18.7659204  20.7141781  90.5712223  19.5329320  21.0756373
  90.3153896  18.1287169  20.5719352   9.6718025  30.7976985  86.0071278
   9.0442914  30.0783563  86.0778999   9.5293474  31.1544204  85.1303768
  90.4933739  11.7612314  20.1243448  90.0864220  11.1895621  20.7753587
  89.9217892  12.5281906  20.0883698  75.3625965  19.8876488   6.5080762
  74.8887539  19.5294917   7.2586954  75.6880569  20.7348394   6.8123358
  64.4182730  36.1501575  18.8121891  64.0867901  35.5413818  18.1520832
  64.0721989  37.0023942  18.5473216  18.9975703  47.6064157  80.5502510
  18.3818507  46.9343996  80.2578259  18.6463118  47.9042578  81.3893795
 104.4431210  15.0477695   6.9628394 104.8386955  15.8250213   7.3573482
 103.7010670  14.8419058   7.5313473  55.4771900  12.6644599   9.1275734
  56.2120628  13.0828178   8.6790472  55.0996923  13.3586800   9.6677452
  76.7429543  12.0229697  31.9000959  77.0638275  12.8135502  32.3339820
  77.2188759  11.3079560  32.3225713  61.5400362  10.5096197  33.7979960
  60.7965469  10.0728822  34.2135859  62.1973991   9.8209685  33.6986732
  38.7072778  20.8275270  27.9077625  39.0662861  20.1985693  28.5336685
  39.2380857  20.7108903  27.1198106  65.3661841  19.0625780   0.5798921
  65.0206393  18.1728905   0.6525812  65.8884543  19.0518826  -0.2222052
  62.8146172  16.0258842  33.9336419  63.5281324  16.6611385  33.9934540
  62.4840403  15.9519982  34.8289013  25.9326863  62.2963190  69.4186354
  26.1115289  61.3917732  69.6756315  25.0322771  62.4526358  69.7033453
 106.0639381  97.5187206  69.1517496 105.5671215  97.1174145  68.4387541
 105.4395294  98.1058502  69.5779276  82.5859737  31.3372040  26.5550709
  83.4024525  31.1388588  26.0965323  82.6972103  30.9468746  27.4219632
   8.4422338  75.7491159  90.1819611   8.8381743  74.9362469  90.4961300
   7.5098300  75.6517029  90.3752613  49.9012566  29.9206805   6.5409577
  49.5604372  30.5789614   7.1465486  50.7641792  29.6978927   6.8901980
  71.9472933  15.3941441   5.2436763  72.7413321  15.3905070   4.7091511
  72.2649431  15.3372526   6.1448389  95.0309849  21.9843292  36.6531777
  95.5490589  22.3945189  35.9606647  95.6788921  21.6797709  37.2885466
 113.4730721  75.5648327  81.3469791 113.9709282  75.3916168  80.5480099
 113.6993694  74.8415899  81.9317341  73.1388330  65.6343079  26.5745950
  73.4840155  65.6757116  25.6827617  73.7123060  66.2101316  27.0803523
  81.8114281  44.4287825  18.2985997  82.4826527  44.1132593  17.6935160
  81.3416481  43.6394835  18.5679495 109.9811459  32.7245450   9.9001682
 110.3628445  31.9356656  10.2851534 110.1367950  32.6317859   8.9602733
  86.5538883  15.3610456   1.7991984  86.5280914  15.8374226   2.6290366
  85.9891129  15.8669341   1.2149611 102.5444984  79.8516083  82.5006485
 102.6581764  80.7561016  82.2087669 101.8411446  79.5086432  81.9493771
  31.5544200  55.3056622  85.5632877  31.9417858  54.4810820  85.8569622
  31.4017606  55.7990122  86.3692188  73.5550356  20.6806540  22.3127389
  73.2310963  20.0896621  22.9924607  73.4816074  20.1766825  21.5022731
   2.2392371  44.6001005   4.4424295   1.6843371  44.8347044   5.1862574
   2.8472799  45.3343248   4.3562418  89.7282028  17.2191250  31.2918496
  90.5219555  17.5092733  31.7412949  89.1535854  17.9845893  31.3024068
 108.3948326  32.4855161  24.8060346 107.7092266  31.8490171  24.6034288
 108.1738663  33.2520866  24.2770982 110.8941078  65.2583647  92.5991249
 111.4621830  64.6441793  93.0642128 111.0339737  66.0957670  93.0412006
  70.2212763  36.8802142  22.8360176  70.4592752  36.1102104  22.3196054
  71.0513496  37.3314071  22.9897642  68.4674406  11.6446495  15.1076138
  68.1333160  12.1711504  14.3813992  69.3118811  12.0410359  15.3221619
  22.4320316 102.0762444   8.9752853  23.0684304 102.1782207   9.6829766
  21.8299365 102.8119659   9.0867507  24.9565792 100.8021164  85.2242661
  25.8053136 100.4459286  85.4869652  24.6364760 101.2573814  86.0030460
 111.7501926  67.9231405  91.0340977 112.4641705  67.2866917  90.9966087
 111.6247463  68.0875731  91.9686890  83.9956474  20.9046221  50.4337311
  84.7760487  20.3518915  50.4748154  83.2674026  20.2865505  50.3714800
  80.6525326  21.3090324  21.9418573  81.0976219  20.5997324  21.4781547
  79.8459244  20.9115934  22.2699714  15.3389168  77.0962048  88.6531544
  14.4134820  77.2440243  88.4583378  15.6481385  76.5394211  87.9385948
  87.4692440  24.7882295  16.4583528  86.6306305  24.4281054  16.7468929
  87.2858524  25.1609707  15.5959940  68.4171247  13.2772136   5.9256059
  67.9250813  12.4897146   5.6932902  68.0541086  13.5462165   6.7694598
  13.0708075  16.4288759  39.9514699  12.9810774  17.2613668  40.4153013
  13.2584608  16.6779304  39.0464902  72.1843481  75.3109980  23.5598230
  72.8896952  75.0599575  24.1562247  72.6296425  75.5322409  22.7419019
  85.0411510  22.9300666   6.2955946  84.3945312  22.6148987   5.6640953
  85.3309441  22.1420217   6.7552018  51.8565702  36.9742274  18.6598778
  51.5568638  37.1360230  17.7653217  52.6065254  36.3880515  18.5588825
  28.0548048 102.6267910   7.7180326  28.3302045 101.7205906   7.5795186
  27.7113032 102.6388454   8.6113930 106.7734337  77.1689558  81.2029743
 107.3660374  76.6031265  81.6978455 106.0083866  77.2684383  81.7695808
  44.3232679  23.7137938   7.2996676  44.9753523  23.2893896   6.7420840
  44.8381186  24.1761994   7.9609853  60.0864887   6.4948934   0.1379496
  59.2477608   6.6412187  -0.2994988  60.0519323   7.0528692   0.9149314
  65.2435923  15.8160591   5.4772323  65.1565599  14.8756087   5.3216290
  66.0224104  16.0697174   4.9819213  94.0806580  87.8971386  82.7837372
  94.8845768  88.0585766  82.2898865  93.6953640  88.7650204  82.9044724
  61.8601990  48.7078571  11.3452399  61.0417652  48.7883759  10.8554280
  61.6123915  48.2591009  12.1535969  46.5191841  13.2949805  10.1531255
  46.1966801  14.1488004  10.4415917  46.0946083  13.1518781   9.3072581
  96.2079906  56.6139126  58.8056612  96.8589306  55.9955168  59.1374683
  95.3804874  56.1343622  58.8443708  11.6926253  18.3001208  11.2730074
  10.8434439  18.1146646  10.8720982  11.4778197  18.7271214  12.1023214
  99.8433304  19.3689084  28.0885363  99.7766590  20.1619482  27.5566745
 100.2138901  18.7141097  27.4967909  56.1203051  63.1482601   0.6607107
  55.3031111  62.6521063   0.6132131  55.8728743  63.9790010   1.0667577
  67.9648304  43.1742382  35.6518531  68.0240107  42.2600746  35.9294128
  67.8133821  43.1285906  34.7078133  35.3205466  27.4234366  92.7546215
  34.7234058  27.8212905  93.3881569  34.7910380  27.3091006  91.9654655
   2.3752086  94.4295979  86.0696983   1.5727837  94.4698048  85.5493736
   2.3431334  95.2119637  86.6202354  63.5848427  24.9268913  80.9059525
  63.9153576  24.8913574  80.0083256  64.1714144  25.5369258  81.3531876
   3.6057279  50.8387136  80.8766747   4.2944330  51.0227728  81.5154457
   2.9834083  50.2850437  81.3482666  43.1402206  89.3278599  32.4065208
  43.4793615  88.6109447  32.9424715  42.7586508  88.8958454  31.6423225
  21.2243223  51.7835474  86.7626953  22.1121335  51.6935301  86.4164066
  20.6629157  51.4128542  86.0817814  25.3061819  87.3824024  63.9725256
  24.4091725  87.2770405  63.6555004  25.6841469  88.0528545  63.4034348
  76.1491919  32.9091620   9.0463012  75.3662825  33.3650970   8.7374103
  75.8315849  32.3306751   9.7396350  76.2324190  67.0342445   7.6435155
  75.7190466  67.6695728   7.1444827  76.6361427  67.5486660   8.3425218
 111.3203144  80.0483513  87.1169472 112.2458172  80.1948261  86.9214249
 111.0003471  80.9004211  87.4133015  84.8621750  50.4381752  18.5739040
  84.0995979  50.3419781  18.0034256  85.2213192  51.2969589  18.3508849
  71.9666862  66.5525627  17.3535264  72.6951742  66.2326288  16.8213809
  71.5696096  65.7609367  17.7167010  94.0590477  60.8664083  88.5564041
  94.9112892  60.9127665  88.1230831  93.9747906  59.9505997  88.8217831
   3.6231914 100.4506397  78.6177111   4.5110792 100.7646465  78.4465790
   3.6005229  99.5746803  78.2324791  92.7467251  44.6430254  12.9400849
  92.0106220  44.1600466  12.5644374  92.6556301  45.5291033  12.5896502
   5.7874364  97.2076702  80.6369495   5.9666687  96.4895630  80.0299740
   6.3017660  96.9966698  81.4161682 101.7350197  68.6786985  56.1371613
 102.4020576  68.5989618  56.8190193 101.7464066  67.8320265  55.6907845
  97.3148155  47.4567175   8.0735481  97.4229622  48.3761215   7.8301752
  98.1534004  47.2123528   8.4650624   2.8863555  71.5059805  86.3191700
   3.6772293  71.0400629  86.5905952   2.1912748  71.1347294  86.8625546
 105.4695034  66.9997644  68.2206821 105.7209969  66.2130117  68.7044191
 105.8415794  66.8734407  67.3478508  18.7511230  22.0282006  25.2349067
  19.2228770  21.7232656  24.4598603  17.9112995  22.3393583  24.8971057
 110.6081390  71.6569567  65.6070518 111.0242081  71.1114693  64.9395418
 110.1208210  71.0389090  66.1518192  32.8701663   4.0306056  81.0969543
  33.6442018   4.3531024  80.6353283  32.1912289   4.6782380  80.9076118
  75.3743076  38.3697057  27.8951645  76.0014677  38.9581752  28.3154106
  75.5632305  38.4466457  26.9599533  49.2106962  46.7329693  21.8967843
  48.4444857  47.0970488  22.3401761  48.8960028  46.5069389  21.0215068
  73.2822227  30.1571441  15.9054697  73.4752989  29.8953629  16.8057048
  72.7081490  29.4670010  15.5732393 103.5664463 104.0991211  76.3638830
 103.4601021 104.4692993  75.4875898 103.8839722 104.8291492  76.8953609
  31.6894031  34.2707419  26.1541247  31.8022823  34.3380570  25.2059913
  32.5760937  34.3457103  26.5068150  47.7640963  47.6269770   2.9262540
  47.7118492  47.9185534   2.0160425  47.3564100  46.7609406   2.9241079
  52.7914190  22.5383902  41.3822126  52.6517105  23.1265330  40.6400537
  53.0995941  21.7229295  40.9868813  30.0066423  22.8606987   4.7603104
  29.1376686  23.2558322   4.6896920  30.6103468  23.5670805   4.5305392
   5.2042651  51.3284397  85.4387951   5.8590901  50.7590580  85.8428288
   5.2860254  52.1584368  85.9085274  96.8260479  27.3148179   9.0708607
  96.5789890  28.0651569   8.5303211  96.8506050  26.5777588   8.4606379
  23.9131117  83.1124115  74.3794584  23.9392591  83.7792015  73.6932039
  23.2755709  82.4709320  74.0659618  87.2964096  20.3364062  39.8568869
  86.3588715  20.3239441  40.0495291  87.3954773  19.7451138  39.1107035
  21.8631601  15.1573944   4.2835671  22.6400399  15.3970587   4.7887921
  21.8187857  14.2035687   4.3504894   2.8507352  81.0175610  92.2424507
   2.9502419  80.3664684  92.9370117   2.0735598  81.5173912  92.4922657
  85.3192329  32.3092055  12.2540104  85.6847477  31.8032646  12.9797220
  85.1753235  31.6646004  11.5611851 109.3279743  32.7232599   2.2084829
 110.2369785  32.7236342   1.9085924 109.3227482  33.3187461   2.9578829
  71.6767550  14.2207003  35.9111834  71.2277079  14.8690832  35.3687930
  71.4513350  13.3792078  35.5145621  29.0223455  62.0628929  62.8486109
  29.8168397  61.5312052  62.8004789  29.0008044  62.5371408  62.0174313
  21.7798591  99.0306568  69.5316935  22.3821354  99.7379398  69.7624302
  21.9529796  98.8611984  68.6056566  72.1911812  69.8658752  60.4922771
  71.6330528  70.5594492  60.8439589  72.5445461  69.4272518  61.2662172
 108.1772614  90.3133392  89.6073914 107.6497841  89.5358849  89.7906399
 107.6775265  90.7912636  88.9455128   1.4461970  68.4920692  62.6959753
   1.8315436  69.3171692  62.9908466   0.5232874  68.6982107  62.5477409
  96.9546223  38.8058209  20.6217337  97.0233345  38.2758570  19.8275995
  96.0475731  38.6942410  20.9064126  13.9497852 104.7431087   1.9286142
  13.8090241 104.9106312   2.8604707  14.2559075 103.8369370   1.8917301
  12.0615697  23.0792284   6.1360288  12.8954911  23.5088658   6.3263416
  11.7989242  22.6866269   6.9685620  77.3377180  35.1119781  23.4150505
  78.2299137  34.8071957  23.2497430  77.4224758  36.0606503  23.5102797
 104.5861530 100.8891106  80.0763798 104.4934940 100.7481289  79.1341686
 105.2261925 101.5969467  80.1508427 107.1347848  49.5876745  92.9170047
 106.7141882  49.9153189  92.1220350 107.0276895  50.2945952  93.5534157
  64.5331955  24.6730995  25.6469536  63.6163330  24.8942471  25.4835796
  64.5070028  23.7784100  25.9861827  55.8254623  99.9577904  16.6710329
  55.1934099  99.5375156  16.0878432  55.5298233 100.8662796  16.7298615
  92.7742958  16.1423707  17.6462078  93.2434368  16.9759607  17.6105380
  92.9222107  15.8221769  18.5360563  70.9715891  18.4794152   1.7409560
  70.4769087  18.2731187   2.5340268  71.8712807  18.6003757   2.0445299
  79.0116835  54.7018099  25.0642323  79.9151850  55.0162077  25.0314760
  79.0704107  53.7783289  24.8193574  83.1492901  16.5432703  39.7021508
  82.8108883  17.3790550  39.3809319  82.5462055  15.8891165  39.3491507
   3.7041420  83.7193584  85.6741524   3.8159853  84.4979382  85.1286888
   4.5765501  83.3275032  85.7140160 105.6611538  44.0772200   0.7912778
 106.2506294  43.4517384   1.2126175 105.4456806  44.7051764   1.4808226
 100.0295925  32.5476599  20.3754759 100.8269501  32.6982832  19.8677742
 100.0490189  31.6128111  20.5801988  83.8119030  49.1195726  14.4299257
  83.0295181  49.6687031  14.3793130  84.4209385  49.5121765  13.8044977
  76.0485220  27.3443103  14.5382488  75.8578205  28.1388736  15.0367796
  76.3987923  27.6620054  13.7060165  56.6447496  27.5768423   0.6407547
  56.5165567  26.8018961   0.0937103  57.1141624  28.1924343   0.0777915
 105.0399714 103.7967760  92.8511773 104.5970183 104.4472963  92.3063412
 105.4531222 104.3082840  93.5468058  58.1411934  39.5833135  12.1495557
  58.1476736  39.5911455  11.1924100  59.0663004  39.5791984  12.3953092
  84.5427704  17.9419053   3.0270845  84.6122456  18.1462359   2.0945328
  85.4369450  17.7268016   3.2924172  13.1519389  88.9243317  91.3760471
  13.2123232  88.3933353  90.5819225  12.4285591  88.5368729  91.8688202
  83.1702328  51.9506025  59.1462803  83.9983940  52.0044518  58.6693287
  82.5148010  52.2671366  58.5246325  67.0827246  30.4433322  34.6625614
  67.4609852  29.6775317  34.2304778  66.4094687  30.0841117  35.2404237
  69.6965790  53.0557060  41.6704226  69.1248846  52.8745222  42.4164629
  69.3757391  52.4789000  40.9771776  56.4852238  23.0320334  20.7391906
  56.9450760  23.8262820  20.4672813  55.9094191  22.8247857  20.0031662
  66.5537977  37.9748607  17.1264791  66.3300228  38.7622428  17.6226473
  67.3306513  37.6280379  17.5651681  84.3591499  17.4034512  46.3247633
  84.7064686  17.1627831  45.4658794  84.1150284  18.3246183  46.2348509
  37.1111512  97.5277615  22.5071502  36.5743041  97.4207211  21.7219305
  37.3327327  98.4588718  22.5206947  76.3059568  61.7681122   1.3346355
  77.1373987  61.3745546   1.5993108  76.2251759  62.5486374   1.8828045
  70.7652617  40.5430794  20.9240174  71.6015387  40.3294230  21.3378072
  71.0068369  40.9796429  20.1071429  45.4354954 103.0878925  51.1808300
  46.0293818 102.9105186  51.9102621  45.5221558 102.3242283  50.6102705
  94.7436047  19.2123425   2.7804106  93.8972950  19.6074128   2.5708684
  94.9029732  19.4569480   3.6920026  92.9836082  78.8435888  23.5587955
  93.4831333  78.3825827  24.2327261  92.1940804  79.1437149  24.0091228
   0.1080639  35.3627729   2.2641484   0.1954331  36.0819197   2.8897896
   0.3520541  35.7469368   1.4220564  99.7158146  45.4171991  21.5923429
  99.3914032  44.6859598  22.1179700  98.9622498  46.0005760  21.5026712
  83.6177158  47.2508907  25.4172444  84.5238781  47.4198294  25.1592636
  83.5204792  46.3015652  25.3427219  94.3637276  35.5763459  18.7259972
  93.9703178  35.1603007  19.4930470  93.8743877  35.2216268  17.9837346
  90.8182335 105.7319832  92.5256157  91.1778164 104.8495483  92.6164341
  90.2081108 105.8185577  93.2580757 101.3308811  68.3549547  20.5229998
 100.4018116  68.4892988  20.7101011 101.7816830  68.6815310  21.3016891
  15.9113503  82.4613380  89.6770477  16.2663555  81.8360996  90.3089333
  15.8087921  81.9552517  88.8710785  53.6334276   8.6387563  76.9574213
  53.8134241   9.5721126  76.8448114  54.0673590   8.4085655  77.7789736
  91.5094280  40.6593037   4.3999845  91.7164135  41.5645456   4.1677579
  91.8091869  40.5695724   5.3045988  20.3747869  76.0482168  18.5687435
  20.5682993  76.6215658  19.3104017  19.8869729  76.6017818  17.9589617
   7.0443982  26.7767239  16.6060197   7.2912163  25.8908296  16.3404930
   6.1131322  26.8396473  16.3938522  71.2053013   3.5098615  92.5062847
  71.0951948   2.5705034  92.3589325  70.9294844   3.9152157  91.6841888
   3.3956838  68.1034279   8.1019711   3.4276050  68.8285208   7.4779141
   4.3077216  67.9686069   8.3593482 108.4238529  21.5030050  25.9600449
 109.1752529  21.5046978  26.5530324 108.1450844  22.4180055  25.9240484
  57.5924826  11.6463983  11.5329564  56.8996477  11.1558747  11.9752204
  57.2348309  11.8370950  10.6658030  76.5731478  49.0774488  11.5979528
  77.4314547  48.7169933  11.3752174  76.7675257  49.8370028  12.1470737
  56.8333006   5.8301038  87.9352379  57.3816347   6.2629819  88.5895920
  56.5739965   6.5317464  87.3379993  57.2598314   5.0678384  23.1566548
  56.6177940   4.6823382  23.7528205  57.2238731   6.0065532  23.3403754
  19.2222035  81.2185192  68.9655638  19.0344095  81.7174911  69.7605467
  18.5585177  81.5072727  68.3391666  71.4982939  43.4528923  13.1890309
  70.7168198  43.8796425  13.5403395  71.8357897  44.0689754  12.5388217
  86.9625092  23.3891869  20.2998376  86.7135906  22.5076771  20.5777073
  86.1929893  23.9261508  20.4888916  71.2696838  56.5269756  12.6120329
  71.4876175  57.0802402  13.3621240  70.3567696  56.7377996  12.4161303
  93.2632160  31.4070582  16.5391171  93.0029106  32.3280716  16.5533543
  93.8323975  31.3308430  15.7733107   1.6480622  64.1471338  92.3075008
   1.1824287  63.5572100  91.7147064   2.5435913  64.1679335  91.9701195
  84.0783501   9.3967468  54.4240284  84.8312187   9.6110767  54.9749136
  84.4511414   9.2534602  53.5541248  46.6425610  39.1863680  91.7701149
  45.8088875  38.8567996  91.4345646  46.6300583  38.9654350  92.7013874
  20.8129883  25.1312923  35.8410549  21.6042161  24.5965004  35.7763505
  21.0902786  26.0039783  35.5621958 102.1740723  71.8613529  10.2388942
 103.0782509  71.6514587  10.0051701 102.2000599  72.0136976  11.1835349
  28.5250902  45.3204536  71.4226246  27.7391839  45.0961208  70.9243679
  28.6141348  44.6127415  72.0609379  66.1278248  33.3716726  25.2508616
  66.6325521  33.0055428  24.5246172  66.3772821  34.2954993  25.2741694
  73.5267019  41.3333797   4.0032703  74.0679789  40.6132889   3.6796710
  73.0591154  41.6479731   3.2295623  54.8625660  12.0173454  43.2887125
  55.2616024  12.5439095  43.9813375  55.3318787  12.2714937  42.4941158
  45.4690552  83.4248352  84.8414040  45.5601263  83.8042545  85.7154655
  46.0207224  82.6428413  84.8610878   1.8794698  87.1583652  71.3965178
   2.4517755  87.9153728  71.5215731   1.3394284  87.1332932  72.1864271
  20.6110668  16.3866556  70.4102802  20.8612680  16.7632473  69.5665884
  21.1495471  15.5993366  70.4902744  87.7738094  16.7968094  15.9886277
  87.3666000  16.2261045  15.3369284  87.1373844  17.4990320  16.1231244
  59.3180227   5.3795439  72.3856068  58.3662605   5.4580730  72.3207140
  59.5326519   4.6171731  71.8480635  56.3780499 104.6460342  86.8395329
  56.2781811 105.5879498  86.9775677  55.4816771 104.3111134  86.8155479
  45.8081436   0.9710572  91.0307980  45.9847116   1.9118303  91.0319424
  45.5619907   0.7746616  90.1268768 103.2704258  27.0468712   7.3203123
 104.0949249  26.7373514   6.9453007 102.7467251  27.3096180   6.5633899
  11.5879869  87.8795242  85.2316570  11.9745457  88.3189964  85.9890652
  10.7172680  88.2681847  85.1478481  73.5822248  52.2616720  12.2776353
  72.9162550  52.7698803  12.7407038  74.2964077  52.8815079  12.1293926
  83.3816433  22.5187588  38.5607028  82.6765537  22.5765538  39.2054844
  83.7392426  23.4055614  38.5167027  63.1617260  51.5528297  25.0760150
  62.3738384  51.0476017  25.2765489  63.1185770  52.3071527  25.6636906
   0.8036482  69.0272522  12.0286191   1.6736108  68.6785507  12.2230470
   0.8552036  69.9507475  12.2750568  82.1495056  38.5134768   8.5644424
  82.8712368  37.9600215   8.8628012  82.5721169  39.3206811   8.2710946
 102.5163174  72.2557545   1.8514994 103.2469463  71.9442463   2.3857048
 102.7235699  73.1732130   1.6738689  80.0615978  38.5302091  10.4722238
  80.8393955  38.5473847   9.9145848  79.3290091  38.6324024   9.8646808
  99.7193718  56.5138102   2.9161072 100.4796028  56.1958599   3.4031248
  99.4397354  57.2956467   3.3923078  21.3596153  92.6747227  55.1286840
  20.5000544  92.9276657  55.4654455  21.9289470  93.4126186  55.3468466
  61.6299200   0.9777018  67.8888321  62.0756435   1.0150691  68.7350988
  60.7467890   0.6724714  68.0965424  41.2001276  72.4433994  12.2309065
  41.6620874  72.5417471  13.0634677  40.8154488  73.3044910  12.0672691
   3.8445807  55.8309984   9.2600328   4.0599772  56.0508394  10.1664031
   2.9423308  56.1306810   9.1488194 100.3627491  81.5047359  32.6221442
 100.7764721  80.6415749  32.6189137 101.0936069  82.1208382  32.5721264
  71.1330605  35.8566761  26.6232872  71.3672066  34.9902034  26.9559097
  70.4846811  35.6839991  25.9406352  74.6985483  17.8475451  32.8578997
  75.1205111  18.4396660  33.4804535  74.9152565  16.9712293  33.1762362
  75.5694962  59.2059851  19.0955782  76.4654112  58.9801311  18.8454700
  75.5652809  60.1624250  19.1334414  96.6964340  42.9584026  10.7303464
  96.4902496  43.8375950  10.4129517  97.2491646  42.5803518  10.0463820
 102.9874420  54.9494839  32.9749584 103.0781364  54.9197626  32.0225286
 102.1732044  54.4787264  33.1528258  68.3457565  23.3696675  31.9237971
  67.5523138  23.8728046  32.1069241  68.4424019  23.4126806  30.9724593
  14.6631610  56.6948462  21.8431234  14.0924776  57.4599314  21.7710590
  14.5650077  56.2430382  21.0049891 108.3487225  49.6476126  50.0528955
 107.5207710  49.6021128  50.5310678 108.2191181  49.0777540  49.2948103
   3.7165615  15.2790797   3.1304595   3.7377870  14.6498454   2.4094565
   2.9738179  15.8484936   2.9296297  79.9045324  12.5661767  55.5642796
  79.3484831  12.6256001  54.7874212  79.5727015  13.2474947  56.1490250
   7.1977174  34.5642781   4.6207809   6.5801078  34.8771334   5.2817738
   6.6991758  33.9264822   4.1099933  87.2297382  50.3472614  23.5887527
  87.9707336  50.9480047  23.6679244  87.1723270  50.1599360  22.6518178
  53.5419464  19.9322772  84.3958950  52.6331091  19.6754539  84.5517445
  54.0112209  19.1039526  84.2964268   1.0961125  93.9691830  75.1010084
   0.6055792  94.7436619  75.3763151   0.4818180  93.4780121  74.5554543
  92.2276878  58.0339193  25.2994442  91.5579891  57.3523283  25.3557873
  93.0074215  57.6361752  25.6867933   9.3822604  22.6115608   9.8629153
   9.1792572  23.4279203   9.4062108   9.2383277  22.8122973  10.7876968
 100.4566193  17.0941222  33.0632210 101.3637447  17.0132148  32.7685785
 100.0842953  17.7784872  32.5071168  80.5715275  62.7895784  14.2276490
  80.9423923  62.5989676  13.3660436  79.9419403  62.0845699  14.3787062
  87.6062679  41.8868208  21.7051196  88.2983971  42.0362520  21.0610247
  87.2096729  42.7482939  21.8347645  96.2672520  59.2113352  19.0422142
  96.4454174  60.1451445  18.9304507  96.1779022  58.8760996  18.1501031
  95.5229759  62.1092081   2.6753768  95.3699780  62.9872990   2.3264155
  94.6465778  61.7580986   2.8331116  77.4694538   1.9387774  40.6644821
  77.3582029   2.8472188  40.3841400  77.4860048   1.9834575  41.6204929
  23.2165551  87.3633862  86.1215591  23.0792141  87.5158215  85.1866055
  24.1469574  87.5413322  86.2591076  94.9100971  55.2170658  20.8105111
  94.1840839  55.3591537  21.4179301  95.0681305  54.2735481  20.8426833
  60.6709909  91.0677814  72.0472145  61.3252974  90.9813404  72.7405024
  60.6859970  91.9970703  71.8182373 111.5120602  23.7159586  35.9928870
 111.7409039  24.6030831  36.2701511 112.1294975  23.1524920  36.4592648
  70.4693317  32.9691315   0.7326046  70.2025509  33.8882303   0.7147779
  71.1288309  32.8977346   0.0425357  94.9530888  64.3295622   6.5014535
  94.3329239  64.4837284   5.7888085  94.5711327  64.7821569   7.2534519
  92.6897621  61.7827177  21.4405847  92.8593159  61.3633299  22.2841454
  93.2324314  61.2979317  20.8187127  31.2604451  52.2972631  35.2676272
  31.7286515  51.4963627  35.5033708  30.5286574  52.3369598  35.8833718
 102.4654675  54.5020723   6.1151749 102.0452118  53.9867830   6.8037176
 103.3889294  54.5285416   6.3656610  10.7273674  24.9125266   4.3728906
  10.1669860  24.2794657   3.9240685  11.0428452  24.4464731   5.1471651
  87.3129082 105.3439426  84.0542126  86.6123009 105.8561134  83.6503983
  86.9983864 104.4404793  84.0217304   9.9667609  28.0484891  17.8423107
  10.8038831  28.4107566  18.1325173  10.0987148  27.8540564  16.9144011
  46.0544157   4.4282946  85.2608967  45.7613134   3.5172457  85.2431870
  46.7320919   4.4750306  84.5865059  86.8468952  68.6971378  14.3663979
  87.1538448  69.5527554  14.6662903  86.0237885  68.8828754  13.9144778
  83.6281013  58.1168365  21.7745066  83.0401039  58.0039883  21.0276771
  84.4472504  57.7055502  21.4986944  98.6833191  19.6374846  17.4125445
  99.3775272  20.2881670  17.3080420  99.1447926  18.8279760  17.6315594
  81.8807030   7.1158260  22.2559452  82.7623749   7.3741019  21.9872761
  81.9829559   6.8201125  23.1605601  60.1874161  20.5250263  24.9073720
  59.3561649  20.0509453  24.9297714  60.8203077  19.9169624  25.2893901
  77.6496077  25.8830810  37.8242087  78.2436800  25.3242326  38.3252072
  77.7341843  25.5744839  36.9220757 102.4881840  41.1809778  18.8884044
 102.3367500  42.0470715  19.2667985 102.6711559  40.6192255  19.6415234
  66.1894989  16.8543851  11.8276501  65.4832029  17.4845207  11.9701529
  66.3541317  16.4794290  12.6928294   9.7522682  98.6320305  83.7447548
   9.5900548  99.5188141  84.0665245   9.0082937  98.1214809  84.0642452
 110.5137062  31.4626837  26.1487532 109.8060131  31.8474030  25.6316495
 111.1193848  31.1069226  25.4985118   8.2651132  97.1395111  73.5680485
   7.5167882  97.7339935  73.6212587   7.9551917  96.3277912  73.9696598
  60.8276272  43.0158854  23.5340810  59.8876429  43.1888676  23.4818077
  61.0403013  42.5945616  22.7013206  44.4588041  23.9777946  88.5918903
  44.6540928  23.8152146  87.6690388  45.2125072  24.4731164  88.9125538
  91.7465019  25.6284380   9.3820822  91.1165619  25.8734703   8.7043202
  91.6221809  24.6861124   9.4952118 100.5839539 106.2677002  89.2270565
  99.9208927 106.6651535  89.7915173 100.1713848 105.4687881  88.8988018
  99.1659832  98.1971645  78.5508299  98.4793377  98.7176418  78.9677858
  99.1854572  97.3814487  79.0512991  94.7560596  38.2636309  32.8466392
  95.2371502  38.6139011  32.0969057  94.9191570  38.8915539  33.5504460
  58.5779381  38.5053587   4.7505426  58.8056374  39.4319320   4.6740529
  58.8864899  38.2539725   5.6210792  88.9058399  31.6280007  22.3873639
  88.2043171  31.9023561  22.9779840  88.9056492  32.2867966  21.6929436
 104.2151165  27.5616336  15.8997715 103.8692665  27.0850468  15.1451278
 104.0378952  28.4816384  15.7037675  30.5885863  21.2482214  86.6082191
  30.7014775  21.2692237  85.6579304  29.7090220  20.8932900  86.7371368
 102.3304462  52.4677134  41.4040804 102.9209900  51.9293594  40.8771420
 102.8966618  53.1348181  41.7921638  89.5567989  41.7098951  26.5239477
  89.0415192  41.8868256  25.7369232  88.9882469  41.9747210  27.2470284
  86.0667229  89.3555641  46.0396576  86.9908619  89.1149330  46.1052275
  85.6189728  88.5338688  45.8382511  70.3456593  92.7728176   0.8883578
  69.9493599  91.9057941   0.9746301  70.9013510  92.7059841   0.1118469
  79.0447903  45.4592848   8.4854484  78.4297037  45.5205965   7.7545965
  78.5188150  45.1297855   9.2141545  34.0585160  96.7479420  82.6605701
  34.5599222  97.0738983  81.9131947  33.4460950  96.1174870  82.2814941
  68.7228489   9.0763730  88.4488487  68.5220385   8.1783533  88.1852818
  68.5722685   9.0879232  89.3940639  83.1081104  66.6682482  10.4091120
  82.8953266  66.9241571   9.5116347  82.5598335  65.9015656  10.5759406
   1.6793710  94.1013748  92.9223738   2.5157338  93.6563975  93.0591975
   1.1297351  93.4496910  92.4871277  10.2936506  45.7387400  55.7585430
  10.9012818  45.1829529  55.2705717  10.6266963  46.6270685  55.6313038
  59.5363379  13.7519252   4.8412153  59.1172028  14.5956993   5.0103498
  59.3477917  13.2301974   5.6212676  24.8433638  46.8933201  19.5961869
  24.7059798  46.0247755  19.9743223  24.1029930  47.0156813  19.0019572
 104.0043926  47.2872734   8.6041784 104.1125965  47.6156712   9.4967455
 104.8203659  47.5217867   8.1621152  92.7670670  19.9718392  12.5436139
  93.5561371  19.4336307  12.6062810  92.6708031  20.3580451  13.4141374
 101.3390732  78.2563400  17.6804662 100.7569885  79.0159321  17.7013457
 100.8656788  77.5784969  18.1628108  40.9192705  87.6821423  63.3993483
  40.4868698  88.2474613  64.0394068  40.4576588  87.8530025  62.5784016
  79.5449257  81.2151146  25.8804107  80.2181530  81.2033844  26.5607500
  79.3191862  80.2939701  25.7509232  75.7133436  71.6714430   1.4602859
  75.4641056  72.4656916   0.9877553  76.6692400  71.7048645   1.4974394
  40.2527761  97.6276398  88.9338589  39.4856954  97.0672131  88.8166237
  40.1408148  98.0076885  89.8052120  31.9047904  78.8725567  90.3261566
  32.0480227  79.1794395  91.2214470  31.3919044  79.5676804  89.9138737
 107.6165771  89.2206097   9.5236927 108.4694386  89.0503025   9.9235111
 107.0982075  89.6160793  10.2244925 109.4635010  68.9140129  21.7521095
 108.7695026  69.5701456  21.6881609 110.2735806  69.4098234  21.6330457
  98.9175797  60.0571871  41.1578465  98.3333778  59.5269156  40.6158543
  99.4183540  60.5788469  40.5306864   1.0584395  26.1985373  24.0083122
   1.0653435  25.2435398  23.9437890   1.9785789  26.4505219  23.9303422
  47.3921919  15.7917464  89.7886276  47.5206757  16.1034656  90.6844902
  47.8218889  14.9366486  89.7686291  16.6571057  34.0460992  12.3043060
  15.7407165  33.7706494  12.2800481  17.1081090  33.3375525  12.7634227
  75.3422642  69.3840456  41.6317749  76.2400532  69.6168566  41.3951206
  74.8067999  70.0835085  41.2572622 102.5135612  32.9660749  18.9987183
 103.2602215  32.8044844  19.5754504 102.8078270  32.6700783  18.1373072
   0.3648329  78.7058115  50.4995966   0.2709246  79.6410704  50.3187656
   0.6441259  78.6655760  51.4142609  41.7135286  89.0860176  80.6487083
  42.4100113  89.6162605  80.2614403  41.0803461  89.7246933  80.9764290
  72.6408815  35.0228357  24.2112684  72.5812578  35.4869962  25.0462723
  71.7884064  34.5991254  24.1113687  99.6841431  13.5158277  82.7266407
  99.2435265  14.3619430  82.8052330  99.6962929  13.3385658  81.7860699
  75.9100294   5.1868469  88.1875324  75.4565716   5.8946061  88.6454391
  76.7497015   5.1079834  88.6402607  22.6451135  69.1207647  87.2829437
  22.2156668  68.4276152  86.7815876  22.7970982  69.8184395  86.6454601
  68.8784361  18.3634996  54.9511528  68.7669420  17.4128306  54.9457359
  68.2737255  18.6794019  54.2797613  88.4826374  53.3334064  -0.0564133
  88.9350700  53.4868717   0.7730323  87.5644684  53.5274696   0.1321096
  41.7249346  64.5215797  29.0256929  40.8302832  64.5867348  28.6916399
  42.1690130  65.2927446  28.6730886  89.7914505  70.9554243  12.3940599
  89.0507698  71.1102200  11.8078351  89.5255470  71.3491058  13.2250512
  27.0667386 103.1040478  76.2893438  26.7054319 102.3721123  76.7892981
  27.6826382 103.5235882  76.8900776  25.8055139  93.7555504  71.6169357
  26.0044169  92.8895283  71.2610197  24.9584866  93.6479187  72.0495892
  68.3973217  54.6544123   2.8050262  67.9300165  55.3758764   2.3839027
  68.3955097  54.8786449   3.7355897  31.1741972  63.8391495  37.5009227
  31.4098573  64.7647333  37.5640607  32.0025420  63.3728743  37.6134682
 105.1692677  27.3439622   5.3704447 105.7163525  28.0915713   5.6113011
 105.7839870  26.7018342   5.0154471   3.1930223  99.0193939  40.1172352
   3.2362318  99.0605450  39.1618967   2.8161913  99.8602772  40.3763819
  28.8533115   6.0825461  69.9463272  29.3019605   6.9228488  70.0403357
  29.5554352   5.4533470  69.7809124  97.2616005  56.4853954  41.9865561
  97.1290302  56.7769289  41.0845232  98.1368351  56.7994881  42.2135878
  95.6177711  39.1480160   8.0604357  95.0025368  39.0506792   8.7872380
  95.7140541  38.2632780   7.7080137 102.2340870  65.6926203   9.4589520
 102.1536160  65.1582623   8.6688775 101.3772488  65.6272745   9.8805970
  70.8565521  20.6464171  19.0717685  70.2464104  20.2259326  19.6776974
  70.8248854  21.5741467  19.3053198  23.3837032 101.5244007  55.1911068
  23.0258942 100.9409046  54.5219803  22.6550007 101.6731548  55.7936811
  87.7947140  15.2935970  28.8364577  88.3141041  15.5233014  28.0659366
  86.8914986  15.4813564  28.5811353 112.7791786  75.9767580  21.1921763
 113.6677074  75.6282091  21.2646723 112.2274399  75.2034950  21.0743523
  82.7821636  10.9147644  86.4532375  83.1866550  10.0839937  86.7031193
  82.3956394  10.7441843  85.5943203  86.9037247  70.1330757  17.4699128
  86.4093018  70.8158922  17.9232764  87.7507305  70.1148176  17.9154372
  99.8589325  52.7633905  21.0667396  99.9877262  51.8333292  21.2528300
 100.7420635  53.1033850  20.9228039  69.4582844  67.2454500   5.8022875
  68.6464882  66.9915915   6.2413508  69.8940706  66.4160442   5.6063205
  85.1134777  50.7990170  12.6972985  85.4267883  51.6424704  12.3707283
  84.4193363  50.5489492  12.0874858  99.1058350   9.8610175  80.0905704
  98.8698769  10.4246497  80.8273697  99.7918129   9.2897975  80.4360676
  94.6065044  70.2259588   9.1408920  94.1632652  70.5381107   9.9297661
  94.8605633  71.0239172   8.6772674  72.6785278  48.9860868   5.9422690
  71.8454123  49.3301439   6.2644088  73.3154392  49.2348099   6.6121262
  66.2376499  63.5742998  39.1671634  65.5607033  63.5062742  38.4938574
  66.9161558  62.9597330  38.8875747 104.6927357  63.0846739   2.8401473
 103.8562202  63.4587812   3.1167743 105.2079868  63.8377666   2.5510049
  47.1232319  17.0348406  73.6194706  46.2680149  16.8909109  73.2143545
  47.7187777  16.4677083  73.1296539  93.2860279  84.8395157  77.7349997
  92.9510307  85.4116726  77.0446014  92.8305340  84.0086174  77.5994873
  68.9106560  25.1869416  76.4356232  68.8215971  26.1392546  76.4730501
  68.1270313  24.8556805  76.8742943  69.1578054  59.1932583  25.7717586
  68.2188272  59.2183447  25.5875826  69.3191957  59.9748898  26.3001895
  77.9935408  87.1161652  10.3235650  77.1183586  87.0909786   9.9367160
  77.8957129  87.6648235  11.1017919 105.5693913  35.6167197  24.6734405
 106.3389397  35.3056383  25.1501489 105.1197815  34.8181152  24.3971848
 105.6296158  84.0190220  76.3377810 106.0694504  84.3799591  75.5680370
 105.9679222  83.1265545  76.4104462   6.2235951  48.6823416  82.7484035
   6.2918854  48.3886051  83.6568546   5.6922692  49.4772816  82.7930164
  44.9848080  22.9932022  23.8975930  44.4898081  23.7421656  23.5655403
  44.9937487  22.3706698  23.1705403  90.4296780  71.0692453  43.8184309
  90.7748508  71.6487122  44.4976234  91.2075710  70.7199526  43.3835554
 106.7875195  98.7760353  84.7229385 106.7553806  99.7293282  84.8031330
 106.5839195  98.6060429  83.8032150  89.0132523  10.8387184  22.6550698
  88.9142513   9.9240667  22.9193449  89.0657234  11.3219512  23.4796691
  30.1974177  57.5253391  84.3750763  29.2731881  57.3343182  84.5348930
  30.6237125  56.6683292  84.3815231  81.6085911  50.0680828   6.8853539
  82.1540070  50.8393764   6.7308950  81.8715191  49.4485998   6.2046605
  25.2222157  80.7936859  58.2393074  25.1692557  81.6009617  58.7509060
  25.9773850  80.9228706  57.6654959   8.6237824  97.1021080  47.1200323
   8.3566332  96.2622643  46.7465067   8.8061053  97.6550198  46.3602400
 100.9033775  48.1604004   1.6277334 101.6862965  48.7081337   1.5706915
 100.5541229  48.1482410   0.7366058  63.6939669  43.3944368   2.4832864
  63.8073778  43.5318279   3.4237611  63.6825609  44.2766237   2.1120137
  37.9802060  86.3221550  88.0389881  37.3445916  86.7401314  88.6199570
  38.5215926  87.0432758  87.7178764 108.7118244 102.6303291  85.2487087
 107.8160667 102.3824406  85.4776382 108.7117863 102.6721668  84.2924309
  21.6660619  76.0549593  81.0398865  21.0751653  76.2273741  81.7729282
  21.9255853  75.1403904  81.1514473  30.5969810  95.5538750  57.1123171
  30.7155538  94.6094227  57.0114183  30.3752184  95.6700802  58.0361938
  26.8711209  27.6906133  57.8657198  26.5811419  27.8457475  56.9667912
  27.8139949  27.5434256  57.7912045 108.3878517 107.3666573  62.3573923
 108.4985828 106.5967083  62.9151917 107.4859142 107.3065948  62.0425320
  11.5818870 104.0907001  64.5584726  12.0651472 104.3559456  65.3409910
  11.1073518 104.8780155  64.2916822  94.3539619  73.8523960  73.0386257
  93.7220287  73.7633324  73.7520456  95.2070045  73.8522291  73.4728575
 104.8732090  93.2350636  78.4756804 104.7956085  93.0611134  79.4137383
 104.1236973  93.7949085  78.2731009 106.7091179  42.7582216  67.5931168
 105.9965897  42.5292873  68.1898880 107.1407032  41.9249058  67.4045658
 112.2544003  78.4753561  60.7259655 111.5741253  78.7730217  60.1219463
 111.9083691  78.6780071  61.5951157  36.3117504   8.7422311  41.3324928
  37.1462679   8.3175838  41.5312147  35.6537127   8.0678624  41.5011406
  61.4658213  26.3614488  17.9571748  61.5054083  27.3178267  17.9550743
  61.7487955  26.1080861  17.0785594  40.6547785  24.9974608  57.7330875
  40.7104254  25.3728580  58.6118412  40.3106546  24.1149664  57.8709793
 110.5234432  42.3418903  87.4450493 111.3310719  41.8709946  87.2395611
 110.0038719  41.7169619  87.9507542  88.7724113  48.8611126  20.8203745
  89.0305614  48.0101538  20.4661679  88.3791542  49.3201590  20.0781822
  40.1888657  97.1887207  36.3382149  40.4788876  96.3598824  36.7191958
  40.9066677  97.4517059  35.7621694   5.1686054  78.5929108  18.4773898
   5.1185501  78.2536125  19.3710351   4.2689711  78.5482836  18.1535101
  54.9558258   4.1451111  67.5090981  54.1950464   3.7899494  67.9687834
  54.8875141   5.0922960  67.6291275  58.7501383  13.5638857   9.5868665
  58.3051443  14.2638206  10.0646770  59.6328306  13.5450947   9.9566478
  22.3091602  90.3855610  62.9513025  22.5621390  90.6861115  62.0784330
  22.7017403  91.0233974  63.5473585 102.7420425  70.1143312  79.3869066
 101.8306541  69.8343229  79.4717455 103.1892586  69.3607521  79.0017462
   2.5297424 106.9782352  59.0795469   2.1722335 106.1439323  58.7756491
   3.1997585 106.7334270  59.7178078  99.6508217  53.4628820  15.8544946
  98.7131023  53.6516428  15.8903587  99.9887753  53.7671328  16.6967857
  20.1282454 103.9333916  83.5617065  19.9972093 103.0328369  83.2649422
  21.0766292 104.0174675  83.6603451  76.1746550 103.6434746  88.9214993
  76.8339682 104.2931271  89.1654205  75.3378534 104.0814590  89.0769386
  10.5536067  91.7939854  83.4700298  11.4436579  91.9556427  83.7829304
  10.0258291  91.7395592  84.2667294   3.7193784 105.4469013  88.5123348
   4.1330469 104.6261406  88.7796879   3.5022709 105.3161430  87.5893021
  11.7613375 103.5566235  53.8280439  12.1504843 104.3502235  53.4606218
  11.6430461 103.7557411  54.7567987  43.3036137   4.8130602  71.4420891
  43.5156250   3.9443579  71.7836142  42.4934673   4.6852294  70.9485769
 103.4303570  25.0013733   1.6097537 103.1860733  24.9604154   0.6851579
 102.8557587  25.6715250   1.9798405   5.8237803  68.3846998  83.4642410
   6.7240310  68.5212088  83.7594414   5.8037126  67.4740982  83.1699085
  16.8713677  87.5768757  71.5934038  17.0627189  86.6462517  71.4769840
  17.5776184  87.8983307  72.1538591  79.8241282  26.8776512  13.3329189
  79.0698576  26.6177154  12.8040135  80.3590679  27.4083757  12.7426660
   6.6323739  54.7916317  64.8074341   6.0262191  55.0859261  64.1275835
   6.7290556  55.5481005  65.3859186  12.0455682  67.7198362  79.3264961
  11.5984225  67.1555614  78.6957121  12.6105583  68.2769346  78.7910843
 100.7318401  85.5766487  59.3739176 100.2759171  84.8254395  58.9943743
 100.7822132  86.2120628  58.6598158  54.9498606  11.4649332  34.4039416
  55.0563049  10.9362197  35.1947427  55.1117373  12.3630631  34.6927166
  88.4646130  74.5226860  81.0554314  89.0062332  75.0030279  81.6816521
  87.7893734  75.1484632  80.7933331   6.3699836  93.3665943  80.5200672
   6.9016355  94.0848923  80.8630276   7.0022166  92.6784515  80.3127575
   1.9496979  71.3790035  71.9690657   2.1037669  72.0369244  72.6470280
   1.5569925  71.8677950  71.2458086  21.5260386  50.3417444  77.1889973
  22.3023891  50.0606775  76.7047310  21.4321089  49.6942186  77.8876543
 105.7955170  85.5667305  73.9173412 105.3873348  85.0806618  73.2008505
 106.7349720  85.5031681  73.7452316  26.7071915 104.6115208   2.1108863
  25.8226013 104.7522259   2.4484250  27.0292282 105.4901028   1.9093736
  32.7629852  75.5628204  66.1399412  31.8793464  75.9238148  66.2113380
  32.7256179  74.9873638  65.3759527  51.6538239   4.1898206  61.4547300
  52.4153471   3.7434435  61.0845184  50.9062243   3.8126206  60.9909964
   3.2900867  90.4571438  86.1141777   2.5975543  91.0125637  86.4721489
   3.9627323  91.0719109  85.8211803  83.3103085  80.7964230  49.4238329
  84.1772747  81.1993408  49.4713402  83.2534885  80.2567101  50.2123213
  12.7198040  63.8392162  78.0922031  12.2481656  63.9288235  78.9203072
  13.4339046  64.4736814  78.1534052  28.3250976  23.8217974  79.9918795
  28.2195091  23.2324052  79.2450905  27.5316978  24.3572736  79.9884367
 112.4778461  89.2076206  73.7849951 113.0546284  89.7887039  73.2891130
 112.5695896  89.4967651  74.6928596 102.3469162  79.5078135  91.2362289
 102.7168179  80.1615429  91.8295670 101.8722248  78.9056635  91.8092155
  33.7436819  61.7827845  73.8710594  34.5446181  62.2578764  74.0924597
  33.3423948  62.3016119  73.1739092  61.5631962  53.5094881  14.6040905
  61.8922997  53.4485531  15.5008662  62.0094061  52.8033209  14.1367006
  20.8698606  82.5577545  66.0571957  20.1023746  82.2196388  65.5958080
  21.5058279  81.8433475  66.0197306  48.8534021  84.2093945  89.6934605
  49.2796898  83.4015274  89.9795723  48.9892197  84.2293453  88.7461567
 111.7955589  57.4510813  34.7475719 111.4986515  57.8744793  33.9420819
 111.2326336  57.8149080  35.4309320  23.8660073  90.9381199  83.9821434
  23.4560728  91.0904217  84.8336029  23.7825251  89.9950218  83.8413811
   4.0759742  60.7550812   1.0827325   4.3698919  60.0866270   1.7016120
   3.8004205  61.4873886   1.6341212  90.2274513  57.5657129  32.5871682
  90.8824158  58.2394266  32.4044824  89.4035912  57.9425526  32.2781706
  22.7625728  83.2072830  61.1692190  23.5107541  83.7808514  61.0034609
  22.6948237  83.1716919  62.1233559  13.2275093  96.3009453  80.0483322
  13.5315454  96.4611626  79.1549587  12.7162814  97.0790958  80.2705288
  10.1364040  80.6226635  78.6102152   9.7732115  81.5060616  78.5475874
   9.5153338  80.1469040  79.1617155  10.2580965  44.9394083   3.0982894
   9.4198209  45.3132725   2.8267181  10.7073474  45.6574202   3.5442299
 107.3080921 100.5924702  73.3959723 106.8903351  99.8386383  73.8124418
 108.0269718 100.8232594  73.9843369   8.9552194  83.1883430  78.1000471
   8.1713206  83.5015583  77.6487970   8.8884616  83.5578251  78.9805365
  62.7680826  31.1795449  69.3310261  62.1031761  30.8325291  68.7362909
  63.0077791  30.4350924  69.8829031 101.8531895  64.6182585  72.1603680
 102.0869637  65.3941202  72.6698971 102.5548458  63.9927292  72.3410034
 108.8605881  88.2923222  82.7457619 108.0685711  87.7744198  82.8897667
 109.5096874  87.9057693  83.3335400   3.8199311  63.1817293  69.4547558
   4.4524592  63.2473421  68.7393284   2.9890940  63.4547997  69.0656853
  93.3130550  28.7147927  16.4406252  93.1794453  29.6572757  16.3400888
  92.6756668  28.4520173  17.1046436  19.9794292  64.0909529  92.8336239
  19.8957527  64.8534107  92.2610092  20.5768704  64.3753004  93.5253143
  86.4093590   1.3008687  79.3095255  86.0455418   1.8603854  79.9956846
  87.3030567   1.1172195  79.5990133  30.0977921   7.5988722  59.9350023
  30.6789756   8.1885731  59.4546795  29.2212963   7.9545325  59.7884130
  21.4514017  79.5321369  58.7363577  21.1515522  80.1697922  58.0885029
  21.2627673  79.9417257  59.5806837  29.5441723  88.4038067  50.4615641
  29.5300698  88.7810993  49.5819712  29.3332577  87.4795723  50.3291512
  74.0323591  28.0883121  49.8572206  74.5992184  28.4844637  50.5190134
  73.2208872  27.8899980  50.3245783  68.7558079  63.1640291   7.3636371
  68.0676556  63.8074064   7.1940857  69.2693996  63.5447645   8.0760241
  31.0231614  84.5627117  60.1531267  30.6830931  83.8133526  60.6420422
  31.1559772  85.2406597  60.8156824  62.9519701   0.7305440  43.2298040
  62.7669621   0.3139950  42.3880863  62.2724199   0.3979228  43.8161516
  98.7481213  72.7911282  27.0552015  98.9704418  73.6984253  26.8463516
  97.7911282  72.7716827  27.0497322  63.1726742  16.3678813  17.5264561
  63.0240011  15.8361185  16.7445636  62.5794601  17.1123707  17.4261415
 100.9036541  97.8801155  69.7504902 101.3149548  97.7503490  70.6050205
 100.1901531  97.2424030  69.7287798  72.9997730   2.8211623  22.7487612
  73.4331369   2.5026619  23.5405850  73.5399914   3.5564286  22.4593163
  92.2170353  24.1139317  38.6177731  92.1588898  23.2337093  38.2462096
  92.7595997  24.0086508  39.3992949 107.5382900  94.5799065  57.3522758
 107.1745682  93.7633514  57.6945925 107.8583813  95.0427055  58.1266069
   6.0697556 101.5328312  47.6137447   6.7927033 100.9282017  47.4464273
   5.9449178 101.5002728  48.5622120  22.0223022  91.1808872  73.1032515
  21.0755515  91.3196850  73.0782366  22.3930550  92.0629406  73.1305838
  26.0625005  67.4005890  81.4781380  25.8198071  68.2167387  81.9154453
  26.8612337  67.1183968  81.9238186 110.5024052  86.0580254  92.2282696
 111.1236954  86.3190269  92.9080486 110.9193325  86.3227463  91.4083099
 105.0193310  86.1042500  80.6948853 104.0919685  86.0042381  80.4798508
 105.4738331  85.9704876  79.8631573  84.3884468  79.6649694   2.0630589
  84.5972443  79.1944408   1.2560654  84.3665409  78.9859724   2.7373832
 105.3421021  55.0137424   6.4405715 105.4957867  54.7068357   7.3341161
 105.9495068  55.7453489   6.3308191  88.7896347  24.6156645  11.6174424
  89.7179890  24.8198843  11.7300427  88.7268353  24.2692995  10.7273197
 113.6396313  94.6501541  90.3003597 113.4557533  94.0036392  89.6188736
 112.7993011  94.7806358  90.7397366  37.7546144  97.0956039  64.1976309
  38.5236382  96.5702820  63.9765692  38.0850697  97.9922009  64.2536497
  18.5519278  75.5022812  89.6423340  18.1416130  74.7006178  89.3179703
  18.9398062  75.2506256  90.4804516  96.6490746  29.7032118  21.8091726
  96.7071819  30.3494668  22.5128865  95.7644081  29.3456244  21.8848181
  61.2628889  93.6327553  75.3882265  61.8556976  92.9943466  74.9916887
  61.5865278  94.4809055  75.0847101 110.4083061  91.7534161  66.8180323
 110.9988785  91.0056019  66.9087315 110.9862900  92.5164127  66.8178749
  16.1017382  36.7712069   6.0825545  15.2844191  36.5077996   5.6596613
  16.4440048  35.9637618   6.4661157   9.4270223  79.7964001  85.8983517
   8.4997350  79.7361755  85.6686974   9.6714795  78.9040279  86.1435986
  13.1340480  79.5831299  71.6247559  13.9322960  79.8892069  71.1942339
  13.2835007  79.7526455  72.5548983  92.1139717  30.0797701  11.1203980
  91.9937897  29.1696548  11.3914704  93.0433941  30.1434493  10.9005034
  96.2351227   5.1796585  48.3195639  96.2446404   4.9718380  47.3852491
  95.7907867   4.4355705  48.7259245  45.6931925  87.3310661  52.7509212
  45.4302788  88.1732178  53.1222391  46.2717915  87.5601482  52.0236111
  76.7103577  25.0852251  56.5916491  77.1768665  24.3311262  56.9521189
  75.7874060  24.8334551  56.6234016   9.5145196  72.9800129  87.1924591
   8.6899960  73.1523943  86.7378426   9.3468499  72.1857500  87.6996803
   1.0396070  97.6701832  72.9577780   1.5470655  97.2332287  72.2738266
   0.2524085  97.9807854  72.5104809  25.0751853 107.0695019  40.8061314
  25.9217191 107.4934006  40.6649780  24.8800659 106.6408443  39.9728203
  63.4409809  36.3770962   8.0161041  63.5397959  35.4461193   8.2154709
  63.5820246  36.8177700   8.8540453  65.4060078   8.7242532  71.8832016
  64.7601748   8.1963223  72.3526907  65.0125360   9.5954108  71.8332243
  72.7160358  12.9518950  19.6339393  72.1322632  13.7057257  19.7186887
  72.8908587  12.6818013  20.5354476   6.1163759  58.1262159  72.7934265
   5.7603461  57.5350285  73.4567308   6.3872069  57.5494623  72.0791149
   3.8610026 105.1659012  64.5717573   4.1795406 105.9567547  64.1366625
   4.0742153 105.2983189  65.4954624  15.3844321  70.9164524  89.1070557
  15.2495146  70.7481194  88.1744862  14.8534036  70.2541161  89.5492744
  90.3594875  20.8729124  87.2451401  90.5557251  19.9442196  87.3686409
  91.2169361  21.2976217  87.2200203  29.7592998  72.5814676  59.5971251
  29.7709203  71.6321898  59.4747448  29.0210438  72.7380323  60.1859331
  19.1869879  12.6284993  62.6651287  18.3187532  13.0184472  62.7668190
  19.3717766  12.6963007  61.7283821  21.2332034  11.4600766  59.5793676
  21.3265944  10.6537485  59.0720749  22.1020555  11.6108060  59.9516726
  31.8030047  25.5736303  64.1143036  31.4559412  25.0668764  63.3801508
  31.3107538  26.3942766  64.0928316   6.2990296  51.0989666  88.2913494
   5.5523849  51.6660070  88.4842682   7.0615530  51.6005802  88.5797405
 113.2757950  46.2844467  72.5093985 113.1036282  45.3548431  72.6591539
 112.4474812  46.6310453  72.1777487  20.5080891  81.4370918  87.5940514
  20.1007342  81.1927605  88.4250736  21.2246776  82.0215607  87.8412819
  23.8696742  72.8473186  60.8231640  23.0073261  72.6904631  61.2078524
  23.7182736  72.8239918  59.8782969  93.3379745  65.0738096  87.6361561
  93.5985947  65.9938812  87.5940323  94.0223503  64.6087360  87.1549511
 100.1387310  50.0641632  91.0477352 100.5889416  50.6466103  90.4359436
 100.8331776  49.7302294  91.6155910   3.7808207  87.6533985   0.9903021
   4.6832949  87.8895569   1.2047844   3.7443417  87.6900768   0.0345012
  12.2024345  55.1538944  53.1302977  11.7243886  55.6576252  53.7890530
  11.6300094  54.4122601  52.9339838  11.3696754  51.2307262  76.8628883
  11.1014855  51.2623358  75.9445715  10.5806625  50.9624004  77.3337317
   5.0807327  61.0952044  61.4881182   4.3673792  61.0780048  60.8501053
   5.0067222  60.2615738  61.9526768  14.3315625  73.9443111  77.4279737
  13.7350416  73.3595943  77.8954172  14.2346263  73.6995792  76.5076828
 105.9123898  13.2127666   0.9128205 105.1116943  12.6981401   1.0142422
 106.3953972  13.0670738   1.7262748   1.9469394  58.5463572  61.1094475
   2.3983283  59.2335606  60.6193113   2.2891320  57.7292919  60.7467651
  54.8489904  93.6314774   4.2652208  54.9267817  93.4338284   5.1985562
  54.3789148  94.4647598   4.2352277  11.6371870 101.1419106   3.5220286
  12.2592640 101.6540337   4.0387315  11.7817116 100.2376175   3.8006055
  24.0013003  39.6647477  77.4432850  23.1844211  39.1890717  77.5938654
  24.1210556  40.1912546  78.2336521  74.5485067   7.2421914   6.1708957
  74.1592789   6.6615158   6.8247694  73.9076614   7.2663862   5.4602903
  16.9401753  63.0162859  62.2217226  16.3955617  62.6571989  62.9222107
  17.5617397  63.5888720  62.6712036  88.1941700  37.5946069  82.4182606
  88.2761669  37.4123502  83.3543682  87.2832394  37.8663635  82.3060513
  19.6502054  32.8743505   6.5190834  20.4350901  32.4815822   6.1370885
  19.6681833  32.6017570   7.4364716   9.1908479  62.9401016  41.8989277
   9.9359661  62.4112940  41.6136312   9.2915428  63.7684965  41.4300394
   8.8447118  90.8238697  50.9954119   9.4717604  90.4722881  50.3634071
   9.3729115  91.0332775  51.7657280 109.3890572  75.2402449  87.9032516
 108.9473534  74.6816301  88.5428429 108.6876965  75.5477190  87.3289871
 103.3878517  61.0802269  79.2625141 103.6146736  61.8251610  78.7058640
 104.1990471  60.8717299  79.7258902  83.8250351  40.4136229   6.9135386
  84.0255451  39.6610665   6.3570428  84.6690750  40.6666183   7.2874820
  99.6059227  69.0237856  65.8417988  99.1900063  69.8598909  66.0519838
 100.5116367  69.1266966  66.1338997  20.5334115  55.2525187  76.4043570
  21.2291241  55.0960445  77.0428991  20.9714484  55.1990032  75.5549526
  45.0535011  96.8510437  83.4092331  44.9854040  97.3132133  82.5737667
  45.9380722  96.4853001  83.4092140  18.5131538  50.6749821  40.1130009
  18.4671354  51.3676691  40.7720137  18.9579284  51.0812664  39.3691301
  73.9206219  52.9412174   2.9607180  74.3603849  53.7913561   2.9711980
  74.3517113  52.4572277   2.2563401  82.0906734   7.3812240  14.0182054
  81.4910793   7.9116571  13.4934556  82.1256542   6.5393168  13.5641122
  12.7929151  35.3201771  71.3669729  12.9170549  35.7218099  70.5070210
  12.3431540  34.4953966  71.1834335  23.8796902  45.1463413  77.9599285
  24.5813847  44.4953012  77.9573965  24.0646982  45.6949234  78.7222004
  35.7717705  87.7617264  70.5483198  36.2759519  87.2024155  71.1392641
  36.4161634  88.3698463  70.1861334  13.4825337  49.3994188  42.0089531
  13.8741922  49.3902397  42.8823090  14.0675652  49.9512720  41.4898920
  21.2834311  59.6011496  74.3764114  21.0360551  60.2303648  75.0540018
  20.8312654  58.7941360  74.6223927  14.4256902  83.8904476  65.0508499
  13.5560572  83.5464764  65.2549458  14.2696810  84.7994900  64.7948694
   9.5662481  40.1938057  59.0125275   9.8571593  41.1044502  58.9642811
  10.0841761  39.8142052  59.7223759   5.6289089  90.1527500  70.6237602
   6.1594957  89.6371651  70.0164032   6.2665838  90.6480312  71.1378670
  13.1456447  71.8619108  39.6301579  12.5540996  71.1872005  39.9634266
  14.0204406  71.5474796  39.8584080  26.2420225  80.1350784  12.5500119
  26.2342954  80.3624058  13.4797931  27.1595478  79.9408627  12.3585474
 102.3660278  71.1715651  67.3873329 102.4712563  70.4021025  66.8277931
 102.6646233  71.9031763  66.8471289  19.5558071  61.7669821  67.9730177
  20.1860285  62.4322510  68.2495499  19.0349162  61.5901995  68.7563753
  79.8662043   0.2923870  55.1409006  79.6213007   0.8554196  54.4065619
  80.1511288  -0.5246527  54.7316360  80.0814819  53.4517908  79.7795486
  80.4604435  54.1114044  79.1985798  79.9043465  52.7037001  79.2092657
 109.3066597  86.8725491  51.9565487 109.6485806  87.7001858  52.2947073
 108.6950493  86.5733242  52.6293278 110.4481697  53.6025620  65.9100008
 110.3532791  53.1863594  66.7667389 111.2362003  53.2069731  65.5375099
   2.2228275  85.2881145  63.9803076   2.3192383  85.6527138  63.1005335
   2.1243870  84.3464088  63.8398457  88.0228901  32.1687913  81.0073757
  87.7773190  32.2543764  81.9285679  88.1679821  33.0681729  80.7136250
 109.8680019  82.0527267  65.7714605 110.2756310  82.8094769  66.1926460
 108.9455891  82.1076298  66.0212183 113.6345100  76.2268400  33.6648035
 114.3253708  75.9434652  34.2636704 112.8645420  76.3375187  34.2225981
  28.6706543  30.5289125  39.7005725  28.1251502  30.8568788  40.4154825
  28.0463076  30.2624917  39.0257096 113.8435682  82.6949692  86.7280865
 113.7520508  83.5423565  86.2924385 113.6953613  82.0519447  86.0346985
  18.1260669  48.6652040  77.6683331  19.0269852  48.9753008  77.5765753
  17.9592156  48.6894464  78.6105633   2.8716803  96.6181850  71.0863495
   3.5810542  95.9982681  71.2558222   2.3460880  96.2001133  70.4042959
  24.3929052   3.7724635   7.7545553  24.9835730   3.0806899   8.0525380
  24.2416239   4.3096781   8.5322094   6.9070631  93.3175182  62.5576544
   7.5680840  93.4953594  61.8885851   6.7378694  92.3783112  62.4835014
  45.1439238  91.8614197  77.6917028  44.9575233  92.7806377  77.8828382
  44.2969036  91.4922237  77.4417400 104.8417377  47.5495148  65.2773142
 104.8329353  48.0418253  66.0981607 105.7118416  47.1518278  65.2458572
 112.2272682  95.1928902  59.5972586 112.5277138  94.2920303  59.4772339
 112.8607655  95.5779934  60.2027369  11.2178469  20.9529257  75.0082207
  10.3157365  20.9867454  74.6899652  11.4805806  20.0405216  74.8868990
   9.5147246  83.5389805  63.5860205   8.8073528  83.4492302  64.2246103
   9.1835445  83.1058502  62.7992868   3.0010775  53.7014198  26.9956899
   3.4686032  53.4272003  26.2067342   2.3905118  52.9859161  27.1731567
   8.8524866  59.5011044  78.6522961   8.3698970  60.1862907  78.1898499
   9.7660881  59.6425009  78.4041643  22.8937936  66.0418701  38.5268092
  23.2833815  65.6777096  37.7319264  23.4393883  65.7044363  39.2372274
 107.2614288  33.8816047  55.0892019 107.7163315  34.3688989  54.4022989
 106.7474937  33.2261038  54.6175861  94.9287987  79.9441671  79.6901989
  95.6493855  79.9152851  79.0607977  95.3319550  79.7117853  80.5266762
 109.7267342  77.7574825  73.3474302 109.8646259  78.6655426  73.0779076
 109.8006058  77.2532892  72.5371456  98.9563274  35.9954214  88.9533520
  98.7204838  36.4312339  89.7723103  98.9383411  36.6922855  88.2973862
   8.7827301  68.4213209  78.7227583   9.5475382  68.0532265  78.2802582
   9.1355652  69.1292667  79.2617846 102.5929546  34.3613625  74.7541666
 102.1603870  35.2142119  74.7961807 102.5251579  34.1034436  73.8348627
  27.4056935  67.5196981  78.9455175  27.0147181  67.0599127  79.6884584
  27.6364779  68.3816862  79.2918396  41.7585659  24.2617273  29.2995071
  41.2265539  23.7409353  29.9011493  41.5261793  23.9351535  28.4302664
  34.8741269  57.4585819  61.2504292  35.7056499  57.7646971  61.6125059
  35.1159859  56.7321062  60.6760025  79.4572115  59.9976587  62.4045420
  79.9790764  59.4981432  63.0325317  79.8767853  60.8574867  62.3747253
  25.6443357  76.6455698  75.8131838  26.4918137  76.2104273  75.9062481
  25.8162880  77.3817635  75.2260828   7.8072798  99.7441483  69.5762873
   7.1642274  99.1310024  69.2202520   7.4974573  99.9280548  70.4630947
  33.6742711  71.2326622  80.7261562  33.1530714  71.0769844  81.5137863
  33.0876374  71.0108662  80.0030422  19.4668698  84.7540092  70.8903456
  20.3017664  84.3912315  70.5944109  19.4604325  84.6004486  71.8351221
 104.4282913  88.0377865  70.2854443 105.3637505  88.0421829  70.4882574
 103.9999390  88.1920624  71.1274338  65.4218149  56.8078232  92.1509647
  65.8370590  57.2801733  91.4293766  64.4909286  57.0149183  92.0685577
  30.9491181  80.6488419  53.9402437  31.2551618  79.9266672  53.3915758
  30.4998374  80.2217579  54.6696186 108.8161945  82.0866299  30.7561564
 108.5803795  82.5721836  31.5466356 109.7701645  82.1509838  30.7111835
  12.2796619  63.3062935  46.0753965  11.4310157  63.3837128  45.6394625
  12.5875866  62.4294519  45.8461380   9.1288364  84.9454880  70.1468658
   8.4677595  85.3206825  69.5651150   8.9357138  85.3240395  71.0045576
  57.2099686  58.7413502   8.0614889  57.6702785  58.0267715   7.6213461
  56.3220978  58.4089375   8.1934845 106.8467331  64.6231031  54.2192078
 106.5531349  65.5077267  54.4371080 107.5826836  64.7553921  53.6216307
  48.2250357   8.6308920  78.0263996  49.0989971   8.7406021  77.6517200
  48.2877445   7.8325862  78.5508108  11.8673956  94.4024754  57.1876240
  11.3602209  95.2026939  57.0510483  12.0566761  94.3960857  58.1259012
  91.5196705  70.1537371  74.6191168  91.6712093  71.0005236  75.0389051
  92.3297310  69.6653366  74.7657490 112.3761177  81.7781448  68.4653139
 112.5735092  82.2393131  69.2805433 112.1018124  82.4675179  67.8605413
  28.2720304   2.9796505  69.9822807  29.0800023   3.4351575  69.7457886
  27.9685736   3.4252521  70.7732201  35.4916334  82.9903412  77.7797031
  36.1617565  83.2195568  77.1357870  35.0478864  82.2302818  77.4033785
   1.2486766  97.6716423  67.3485231   1.2980613  98.5234356  67.7823925
   1.9182278  97.7115059  66.6656303  44.0340996   2.6302630  43.3028460
  44.9853039   2.5492331  43.2330084  43.7002373   1.7757480  43.0297661
  34.0598941   3.9901504  44.9622822  34.0416837   4.0689486  44.0085077
  34.1771746   3.0538666  45.1230621  31.8360186  62.8370619  67.0572376
  31.5523601  62.9229927  66.1470842  32.3891354  62.0558691  67.0629930
  32.0705080  90.8614254  46.0027933  32.8003454  90.8563232  46.6221046
  32.4238348  91.2834930  45.2196932 103.0376244  95.6534100  72.2936249
 103.8905144  95.4857349  72.6944828 103.0877590  96.5614033  71.9948339
  97.6631832  64.8875952  47.5711727  97.7193165  65.8302879  47.7274179
  97.4569321  64.5146227  48.4282494  88.0815220   8.2184154  75.6229591
  87.5545788   7.5131774  75.2471972  88.9131546   7.8017628  75.8488321
  22.6687837  87.4319553  60.0982475  23.6164045  87.3161316  60.0287676
  22.4103308  87.8029060  59.2545414 111.4878368  78.2117605  75.5769491
 110.9274864  77.9539061  74.8449945 112.3553467  78.3211946  75.1874924
  12.0095360  69.3584681  41.5680599  12.4340153  68.5867214  41.1932850
  11.1406589  69.0517378  41.8272972  56.2526035 102.7325249   7.8167313
  55.7749701 103.4514618   8.2305151  56.5319204 103.0854130   6.9719356
  26.1131239  81.7859650  61.6460562  26.0111046  82.6600266  61.2694359
  25.4058242  81.2727928  61.2554026 103.1157780  85.9003162  36.1935377
 103.3671093  85.7412434  35.2837253 102.2910690  86.3824654  36.1334062
 111.8106747  62.0983696  46.5691566 112.2192192  61.5041637  47.1986341
 110.8735752  62.0355892  46.7538881 101.2533855  97.1865559  57.9785013
 100.5643177  97.8409290  57.8635597 102.0530033  97.6279163  57.6920748
   0.4049142  66.8840837  91.2108803   0.8279533  67.7121449  91.4379978
   0.8656977  66.2282848  91.7341805  71.9909191  37.0659113  18.4055471
  71.0996628  36.8029475  18.6352205  72.4161005  36.2544227  18.1281698
  26.3004017  69.3676805  74.3895578  27.0353341  69.9701595  74.2749977
  26.7056036  68.5017300  74.4361591  71.8965244   7.9186624   5.8520138
  72.0478201   8.7993723   6.1950743  71.9879961   7.3459995   6.6135395
  48.5673237  86.3824177  91.2384033  48.4501934  85.5558109  90.7701778
  48.4729147  87.0551395  90.5640411  98.4746075  11.4057553   7.0322829
  98.5899353  12.1257246   7.6524240  97.7625465  10.8833754   7.4014854
   3.8859919  43.9254522  82.7191257   4.7616130  44.2702579  82.8941250
   3.4282881  43.9977694  83.5566807  16.1601269  39.5990372  49.7244835
  16.4425039  38.7237239  49.4592953  16.9598508  40.0257826  50.0319862
  24.8003983  96.9028187  55.3904581  24.1664076  96.1876678  55.4437780
  25.4982710  96.6497803  55.9947538  27.9083371  69.1010284  70.3120136
  28.4821582  68.3823872  70.0464582  28.1047511  69.8052073  69.6941233
 106.7884159  97.5846958  87.4846935 107.6819801  97.4463654  87.7987576
 106.8960190  97.8990555  86.5870094 108.4514141  71.2181568  61.5752983
 108.0708218  71.9989061  61.1730385 109.3892288  71.4046001  61.6198111
 106.5326309  74.9132586  73.8615322 107.0253181  75.5255842  74.4079304
 106.0671329  74.3564749  74.4856548 105.4992199  88.9171505  54.4167900
 106.0935497  89.1755009  53.7123299 104.7170448  89.4511986  54.2781973
  49.1166639  81.0076046  77.3690462  48.8189459  81.1973763  76.4793348
  50.0707245  80.9724998  77.2999859  32.7485323   4.5566341  64.7040653
  33.7034082   4.6127999  64.7399759  32.4542832   4.9529508  65.5241776
  13.3520341  80.0554371  87.1630764  12.8508615  80.6574631  87.7131844
  13.1848538  79.1914177  87.5395775  11.8769741   3.8156351  59.5266962
  11.2876642   4.5693040  59.4962311  12.5340629   4.0517020  60.1814747
   4.3366510  73.1774759  34.8798704   5.1114142  72.7611208  34.5022178
   4.5693278  73.3304024  35.7956791  16.5822840  95.9131145  45.4491758
  16.3504016  96.3928509  46.2443542  16.7771435  95.0264454  45.7526255
  74.6258450  16.1992407  19.1144383  74.6590757  16.8902850  18.4529376
  73.7197447  15.8913708  19.0938818   8.3268136  87.3635387  46.8643665
   8.6768085  88.1832695  46.5154123   9.0588367  86.7490196  46.8119955
  59.8367214  17.8624606  89.3601418  58.9211369  18.1391823  89.3232822
  60.3161097  18.5607052  88.9141846 111.1155128  73.1854630  67.7243376
 110.3485584  73.7479782  67.8319931 110.9642887  72.7302361  66.8960094
  98.3028889  59.3183661  79.9063683  97.6002026  59.1778803  79.2717600
  99.0406418  58.8148785  79.5621872   5.5389512  48.0148029  53.4595299
   6.1798996  48.3374834  52.8260565   5.3590083  47.1166086  53.1818533
  32.6814008  47.4837351  39.2693758  32.6909828  47.2792864  38.3343148
  32.8360844  48.4274912  39.3097949  30.9573650  72.8045750  53.7748098
  30.3372860  72.4521255  54.4131756  30.4175401  73.3212185  53.1765556
 102.9851913  82.0773506  71.6583109 103.7482643  81.9837570  71.0880613
 102.3170567  81.5212727  71.2575483   0.2496290   2.0957190   5.3473538
   0.1775122   1.7317165   6.2296993   0.6039381   1.3791274   4.8208603
 105.8989239  85.8043289  42.4258709 106.6511059  86.3158131  42.7239180
 105.1542282  86.3989830  42.5155592   5.2455097  97.9581261  41.6256857
   4.4628936  98.4100246  41.3102007   5.9220040  98.1743526  40.9839439
   1.9618410   6.2365925  66.5450287   1.8314172   6.4582264  67.4670410
   1.4933214   5.4100275  66.4287901  13.2656980  79.4773197  66.2235975
  13.6611331  78.9735842  65.5121851  13.8159323  79.2902374  66.9841719
  15.5174792 104.8994160  80.2902126  15.9719455 104.3891525  79.6198940
  16.2072015 105.1625824  80.8995152  10.2094686  70.7171822  84.3613434
  10.0844049  71.6511106  84.5297718  10.9697211  70.6781578  83.7810707
 112.3244286  90.7763100  69.4542599 111.3741016  90.8045864  69.3433380
 112.5513935  89.8532867  69.3412924 113.6608601  51.7940140  56.5600300
 113.3741856  50.8895302  56.4337158 113.8379478  52.1148491  55.6757593
  32.4407172  68.7139320  49.8515797  33.1398892  69.3577528  49.9650621
  32.6629257  68.0092621  50.4601049   3.2421011  79.2461729  51.1192608
   4.0902156  79.3744278  51.5440941   3.1919554  79.9462223  50.4683781
  87.1742725  47.9315519  15.0871527  86.8928814  47.9473543  14.1723847
  88.1230164  48.0523062  15.0480175  34.9273014  93.1941891  73.7612486
  34.6978855  93.9300156  73.1936646  35.6670117  92.7744675  73.3220530
  12.2375143 104.6538353  28.2943964  12.9401290 105.2243328  27.9827881
  11.4838278 104.8832607  27.7507472  29.6497393  68.2404566  88.5956383
  28.8090754  68.4034348  89.0233707  30.3011918  68.5716391  89.2138290
  31.5876770  76.5286446  79.3920040  31.6750288  77.2277880  80.0399303
  30.6534028  76.3204384  79.3887901  54.5949984  86.0470390   8.6186200
  55.4523754  85.9820557   8.1980085  53.9700031  85.8564186   7.9191381
  23.1216836  56.7273474  86.3924122  23.3767557  55.8094501  86.2994671
  22.6197052  56.9178629  85.5999756  18.8442671  87.3150921  59.4737053
  18.7102282  88.1972122  59.1271019  18.4773672  87.3466015  60.3572321
  24.1608644  62.5229359  88.0229664  23.8277698  62.1706486  87.1976280
  24.5759702  61.7749739  88.4524727  23.1681991  62.9471779  82.4556732
  22.4944925  63.6253500  82.5049877  23.7115240  63.0925465  83.2302094
  27.4662805  70.6890583  58.4181118  28.1862497  70.1253605  58.1350565
  27.1127343  71.0519934  57.6060057  85.1622105 101.7019749   9.5063448
  85.1909351 100.7539368   9.3773687  84.4848537 101.8330097  10.1698601
   8.7918925  73.5992718  74.2259407   8.9503759  74.0722466  73.4089851
   7.8784710  73.3191919  74.1672182   6.1764455  73.7081957  56.1919689
   6.9938743  73.2312107  56.3352489   5.4925996  73.1032467  56.4794159
  81.1720657  42.6315355  31.1439347  80.3357887  43.0951166  31.0994816
  81.8282795  43.3261395  31.1999249   1.0985526  88.1415939  80.4720211
   0.7711826  89.0398502  80.4251480   2.0084006  88.2327271  80.7550430
 102.1078300  66.7816591  74.0853500 102.9191875  67.0116138  74.5381880
 101.4335155  67.3006821  74.5236921  57.9220676   1.8217337  71.1498690
  57.3928881   1.7261556  70.3579950  58.7898254   2.0682149  70.8297443
  11.8705666  74.3800259  71.5815830  12.3240602  73.5372210  71.5657759
  11.2258315  74.3183517  70.8767796 106.3158417  58.7948036  88.1733227
 106.3918018  57.9964638  88.6959267 106.3668442  59.5053482  88.8126659
  76.6067648  80.7098675   3.1809077  76.3728380  80.2451897   2.3774204
  75.8437061  81.2548256   3.3732346  47.3149252  85.1886940  84.0459919
  46.6626787  84.5217705  84.2605114  47.9721069  84.7232914  83.5285473
 111.7715549  35.9234333  69.6062613 111.0178661  35.5413628  70.0559330
 112.4001122  35.2046490  69.5392132  29.7247767   9.5276469  66.3585711
  29.1928172   8.7367570  66.2705803  29.0944481  10.2465618  66.3129759
   1.9711214  79.4853687  60.5698776   2.4677065  80.2875328  60.4081297
   1.9188890  79.0593767  59.7142887  21.1098242 104.2336178  66.9932413
  20.9523940 103.5036373  67.5920582  21.1322069 105.0061321  67.5579929
  14.2407727  83.1699467  87.0567036  13.4575582  83.0664158  86.5162563
  14.9233198  82.6947975  86.5827942  40.7375526  97.3236561  74.0574741
  41.3305092  96.9677830  74.7192812  40.1551628  96.5954399  73.8412666
   4.8884007  90.7838154  34.1919088   4.5652375  90.9430027  33.3050847
   4.8638278  91.6427898  34.6135664 112.0383167  88.5501194  59.2675591
 111.2707043  89.1157055  59.3519449 112.3358727  88.6828899  58.3675241
  33.1436992 103.1712055  63.8545179  32.4274325 102.7910423  63.3459187
  33.2147694 102.6086426  64.6256924  90.0469685  27.2643137   4.2825601
  89.8451233  26.9493842   5.1636446  90.8163261  26.7598486   4.0182933
  49.2094755  18.6986208  63.0770922  48.2638836  18.7017763  63.2256794
  49.3228245  19.1592443  62.2457027  16.4698732  56.1158276  47.6305723
  15.7807314  56.7310476  47.8812075  16.3634479  55.3789043  48.2321167
  41.6019297  82.7341652  62.9743385  41.1892128  82.8879738  62.1244907
  40.9917736  82.1593094  63.4363747   3.6252770  83.2372856  55.5327415
   3.3701107  82.3299503  55.6996632   4.5212039  83.2989502  55.8640194
  16.3497591 104.2054081  60.5553627  16.9229054 104.0341091  61.3026237
  16.6871262 103.6403656  59.8602772   9.1072619  75.0137138  48.5919905
   8.3929813  74.5307255  49.0076351   8.8186151  75.1370764  47.6877260
  31.1556625   2.4450740  64.0079021  32.0172095   2.8041300  64.2201376
  31.1730194   1.5558097  64.3616486  35.5833578  70.3588390  72.8907871
  35.0884366  71.0749912  73.2887888  35.0255275  69.5894814  73.0054522
  44.5494699  91.8555164  63.4676838  45.4954863  91.9668007  63.5620403
  44.4200659  91.6867065  62.5344181  32.8910136  82.3546219  90.5087185
  33.4846258  83.0852795  90.6818962  33.4330773  81.5737724  90.6213093
  42.3765326  85.9265518  55.8448362  42.9816723  85.2167130  55.6299448
  42.6523161  86.2219524  56.7125416  18.2431042  79.9823856  62.4953270
  17.5464904  79.6634150  63.0691004  18.8549006  79.2490530  62.4308634
  11.4774799  61.2860823  41.4044619  11.7119241  60.7556963  40.6429148
  12.0750403  60.9940624  42.0928478   7.4264449 106.8333244  43.3270836
   7.8096032 107.2818089  44.0809250   8.1530327 106.3389111  42.9478025
  64.9768257  27.6041293  29.2471147  64.2371511  27.6509261  29.8528552
  65.2887917  28.5065627  29.1798568  28.9437604  64.6085787  50.7589531
  29.5807981  64.9202776  50.1161003  29.0857410  65.1639271  51.5255451
  47.8721857   8.2103020  72.1011019  48.0489397   8.3560675  71.1717272
  48.7029362   8.4026521  72.5359488 107.9705524  86.1542034  44.3996716
 108.4412193  86.1166382  45.2323103 107.1308804  85.7314777  44.5799065
   7.0771801  78.5081673  74.4147253   6.6812050  77.8336763  73.8629103
   7.5231522  79.0898752  73.7991333 108.0124283  67.2464514  85.0823402
 107.1381187  67.5281668  84.8131752 107.8540134  66.5744734  85.7453442
 104.7839355 104.9480915  90.0879955 104.9539948 105.8206844  90.4428196
 103.8964748 104.7396278  90.3798580  12.6795602 100.8417320  85.6189632
  13.0457079 100.8025932  86.5025043  13.1154311 101.5904903  85.2120209
  12.0274580  95.6508160  74.6819878  12.1212876  96.2414551  73.9346075
  11.6451824  96.1947632  75.3706217  83.4610176  88.4140110  64.7670555
  83.9984703  87.9917526  64.0969229  83.9322281  88.2578659  65.5854750
 111.1734962  96.1854458  74.4075251 111.2480450  96.9833374  73.8840246
 111.7186260  95.5462074  73.9487886  16.5541327  76.6970015  55.6163263
  16.5182590  77.3173237  56.3444376  16.8456399  75.8768368  56.0145617
 108.6550713  83.9916134  83.1462955 109.0071297  83.1279182  83.3615303
 107.7106094  83.8539696  83.0736542  11.0597765  84.6923065  87.8831577
  10.4558825  84.0529633  87.5052929  11.7417848  84.1626358  88.2961273
  17.5090408  33.2808733  74.2976046  18.0640483  33.9614439  74.6784210
  17.3784113  33.5579681  73.3907509  26.7581654  72.5180721  60.2285910
  26.8817234  71.7338181  59.6938848  25.9131598  72.8689814  59.9474096
 111.4268875  74.3537426  76.9742060 111.8782043  73.8241673  77.6315498
 112.1274567  74.6898603  76.4152288  32.0055199  61.5245390  35.1106644
  32.7993131  61.1580372  35.5002832  31.2890172  61.0848808  35.5684400
 109.4375229  76.9306612  78.0095863 110.1729679  77.2922754  77.5150347
 109.8443604  76.4873409  78.7540197  18.2911813  88.2488918  84.5006180
  19.0563679  88.8197708  84.4312382  18.2711232  87.9860115  85.4207993
  10.2513611  72.8119230  51.7839813  10.7239985  73.3467531  51.1461735
  10.2012134  73.3608294  52.5665522  44.1254807  10.3057563  68.1687832
  43.6595106  10.3916180  69.0004873  44.3015671   9.3683189  68.0885601
  97.7955341  63.0239010  58.4776783  98.7381077  62.9705906  58.6356115
  97.4989414  63.7409306  59.0381527   1.5968786  46.5943909  38.5363317
   2.4210802  46.1089134  38.5011911   1.2826461  46.5985918  37.6321888
  12.3893666  86.1078739  67.5846052  12.8878415  85.8167934  68.3481646
  12.1245706  85.2979946  67.1484756  19.0328932 103.8852310  36.4847684
  19.6180105 103.1708241  36.7367411  18.4898138 104.0343380  37.2587633
 111.7153263 101.7623901  46.9253826 111.8429565 102.7107239  46.9498444
 110.8139324 101.6497326  46.6236830  14.0032089  95.9407139  71.0157299
  13.7175536  96.2470150  70.1550198  14.2547834  96.7377758  71.4822435
  78.2419920  22.6527286   0.2076555  79.0418673  22.1276784   0.2350786
  77.9168367  22.6410365   1.1078600  33.9485478   3.0883735  86.7731285
  34.3946600   2.2960120  87.0720959  34.0465069   3.0736461  85.8210754
  19.5020020  88.8169193  77.8867054  19.7052705  88.2870197  78.6575031
  20.3459048  88.9418125  77.4525833  12.1090412  76.9617748  45.1078463
  12.2265756  77.7704334  44.6093607  12.9269421  76.8593454  45.5944443
  12.3869538  89.0645695  80.1158142  12.2499657  88.4208107  80.8108234
  11.5254116  89.4596481  79.9820852  41.0420132  93.2821846  78.2955694
  40.4383898  92.7977180  78.8587475  41.4974785  92.6055527  77.7946091
   7.4919790  80.8981419  66.3865995   6.5857095  80.6635189  66.1869526
   7.5087458  81.8538380  66.3356829   9.6452695  97.0126057  57.5471258
   9.4289792  97.9448795  57.5297642   9.5701677  96.7664337  58.4690762
   1.5243180  74.1482306  31.2391710   1.4163288  73.4401989  31.8742013
   0.6347021  74.4618797  31.0765719  28.8835979  76.1842537  54.0652609
  29.7626686  76.4887333  53.8399744  28.8578963  75.2780962  53.7579298
 108.1761456  47.5903559  11.0934889 108.9657402  48.1112480  11.2398982
 107.9370975  47.2682858  11.9626057  98.9839745  78.6507797  65.3667879
  98.2483864  79.0942383  65.7892752  98.9405251  77.7516556  65.6922340
  15.9784043  86.4251804  39.0348983  16.9321668  86.4035320  38.9568067
  15.8176160  86.7851734  39.9071288  86.2599659  19.6713626  32.4457216
  85.7986546  18.9090860  32.7955103  87.0209026  19.7738981  33.0172992
 107.4353027  61.3410330  28.4495568 107.5553131  62.1418715  28.9599299
 107.7950573  60.6480074  29.0032053  18.5697949  91.5742683  83.3863831
  17.8113985  91.1685944  82.9662704  18.3823597  91.5194035  84.3234444
  35.9369969  36.7032170  60.1823092  35.9105372  37.6515770  60.3093767
  36.2095118  36.3553071  61.0313797  67.2314024  25.0439167  45.7833767
  66.6200447  25.6381249  45.3481817  66.6927719  24.5655251  46.4136553
  29.2715406  58.0559969  31.5846515  28.9265823  57.6766253  32.3929286
  29.2252398  57.3436832  30.9469199  31.1932063  59.0867710  71.8096256
  30.3568220  58.7244272  72.1018553  31.5188670  59.5767355  72.5646830
   9.4426656  79.6480322  26.0146308   9.7101605  80.5139160  25.7065225
  10.2537835  79.2409801  26.3189840  35.2775383  69.2715025  67.7299023
  35.5555105  68.9975691  68.6039257  34.7556663  70.0596476  67.8805923
  18.8613546  73.3054829  59.2416334  19.4089055  72.7309608  58.7065220
  18.1862211  72.7285004  59.5987225  82.9206562  78.8770294  11.9280410
  82.0987892  79.0584660  12.3839474  83.4530354  79.6590757  12.0736694
 106.0636616  71.5230560  78.0933332 106.1269760  72.4626637  78.2646799
 105.1385593  71.3169718  78.2273006   5.3744167  68.9972019  21.0414100
   5.9268540  69.7515869  20.8366036   5.2847213  68.5330200  20.2091098
  50.6429195  31.6798043  68.7839794  50.6761360  32.4993658  69.2773819
  49.8963070  31.2080789  69.1531420  12.4563491  67.4439955  89.2311192
  12.5280488  67.5283861  88.2803440  13.3127820  67.7159357  89.5609760
  29.9520254  80.9866524  59.6437979  29.4003534  80.3114796  59.2487860
  30.7927966  80.5533218  59.7906351   9.5999616   1.4629228  86.1606979
   9.6146959   2.4020803  85.9763145   9.5641333   1.0499780  85.2978992
  26.5228486  26.3185906  67.6184750  27.4204135  26.2147784  67.9344368
  26.6196942  26.6674161  66.7323780   9.0176082  68.9111280  69.7823906
   8.2466531  69.4780254  69.8045254   9.7257966  69.4814968  69.4834232
  20.6392694  95.0843716  37.5088406  21.0796762  95.8998203  37.7482414
  20.8755493  94.4712639  38.2049036  23.2330918  82.2779083  82.9543114
  23.9882970  81.8153191  82.5911140  22.7042127  81.5911961  83.3604431
  54.6943045  89.2763996  58.7415409  54.9211216  89.9606323  59.3713140
  55.5360508  88.9842129  58.3917952   4.7696206  78.0551767  61.2004280
   5.6326824  78.4169769  60.9992886   4.1571239  78.6218929  60.7314825
  18.7827539  96.8428135  77.0966721  18.1016839  96.2901497  76.7133427
  18.6683214  96.7431355  78.0417681  53.5280466  86.3016701  28.8152003
  53.9420366  85.6677914  28.2295036  52.6894426  85.9021759  29.0462422
   2.4600546  72.8759861  91.7789936   2.9861861  72.3402214  91.1853790
   1.6052382  72.9368877  91.3525963   8.5439146  78.9669514  68.0947590
   8.1177247  79.5331335  67.4513054   9.2130321  79.5215750  68.4958887
  40.5342245  89.5197678  37.4581552  40.2198887  89.1024780  38.2602072
  41.0691357  90.2525997  37.7632308  24.7818851  71.3436747  51.2798262
  23.9137292  71.0716581  50.9822607  24.7084808  72.2906160  51.3987875
  47.6435661  11.6301513  57.3390865  46.7032385  11.4620018  57.2779560
  47.7072859  12.5633037  57.5425482  84.0686798   9.0610474  11.4521551
  83.3104706   9.4307303  10.9997308  84.0197372   8.1219339  11.2735438
  75.9706402  59.0917540   0.8078329  75.9049940  60.0433397   0.8878860
  75.2952957  58.7547159   1.3965113  32.1623683  17.3081541  59.8378754
  31.3555479  17.5546253  59.3856335  32.7143192  18.0884278  59.7853613
  86.6702366   5.5982584   9.1855723  87.2786808   6.1527628   8.6971498
  87.1724796   4.8077148   9.3831182 101.0509205  26.0120773  11.9521773
 100.1657677  26.0126925  11.5878463 101.6059971  25.7120514  11.2323761
 104.5673275  52.7396584  33.9744329 104.1532230  52.3564672  34.7476792
 104.1624069  53.6027622  33.8888144  31.1460686   0.9829399  71.6020298
  31.3770461   0.0790509  71.8161917  30.5659223   1.2566595  72.3124790
 112.2627449  84.1621113  63.0378056 112.1573830  83.2114029  63.0736160
 111.7492771  84.4314766  62.2762108  24.7783136  97.7642727  73.0410099
  24.1611266  97.4949741  73.7212944  24.3932056  98.5575294  72.6686335
   0.7789828  76.0379124  57.3044252   0.2007982  76.6748285  56.8845749
   1.6161938  76.1395168  56.8516684  43.9908028   3.3851159  39.4334602
  44.0037823   3.0639648  40.3350830  44.6518707   4.0771604  39.4161677
  19.7201824  88.1575012  66.3511276  19.3663549  88.0402470  65.4694891
  19.9842346  87.2782612  66.6221333  77.1978998  86.9125080  40.7174158
  77.8605223  87.2358418  40.1069880  76.7731953  87.7029610  41.0506535
  24.9146843  89.4723034  80.9835720  23.9703107  89.4411182  81.1365986
  25.0566888  90.3038216  80.5311871 100.8100605  69.0865707  52.8318834
 101.7364788  68.8471079  52.8573084 100.3597450  68.3446980  53.2357025
   3.1567836  66.3690853  75.0419998   3.4304690  65.7436037  74.3711042
   3.8686377  67.0079613  75.0784874  13.4558797  96.7215252  58.7928343
  13.2161868  95.8898067  59.2015314  13.7383509  97.2739410  59.5217228
   8.6564326 104.8242092  46.8414354   7.8248674 104.4004822  46.6288614
   8.8698673 105.3373718  46.0621166  20.9535170  65.9177446  79.8151541
  21.1872888  65.3580093  80.5556107  20.0036621  66.0166454  79.8801756
  91.4955521   6.9955462  19.7725129  91.6488361   6.0717875  19.9710238
  90.5593777   7.0469576  19.5797157 101.6277790  52.2460318   0.2668003
 101.5460491  51.8197346   1.1199235 101.3167667  53.1391573   0.4145591
 107.4538898  40.6394339   8.0864036 106.6947842  40.0564480   8.0754161
 108.1917667  40.0762987   7.8526354  11.1345446 105.3189278  80.3082085
  11.3263154 104.8766232  81.1351490  11.1996603 106.2513447  80.5145931
  24.0774965  66.8140173  66.6233206  24.3716121  66.0359240  67.0969200
  23.3305311  66.5118265  66.1066437  15.9542787  31.6800928  25.7060099
  15.2397978  31.6385841  26.3416409  16.7459095  31.7490983  26.2396693
  21.9328213  68.5159874  21.0024333  22.4926329  69.1500759  21.4505172
  22.0217156  68.7319231  20.0741553  72.0661163  27.7879453  72.3447037
  72.5441694  28.5871434  72.5660086  71.5606546  28.0192184  71.5654373
  23.3827281  12.7115953  90.9467983  23.9175558  13.3575928  91.4081860
  22.7419329  13.2327378  90.4630375  40.4164791  79.5808792  62.1420145
  41.3035393  79.2225218  62.1114922  40.3616667  80.0123310  62.9947042
  56.1780977  15.2475727  63.8439465  57.1216488  15.0978982  63.7844419
  55.8874464  15.3087652  62.9339981   9.5741796  80.1074982  54.4367313
  10.1171517  79.5307398  53.8993645   9.7266483  80.9820557  54.0787649
  71.5751839   8.3237147  64.3519974  71.6325140   8.9108169  65.1058245
  70.6599665   8.0438274  64.3354559  39.2442298   4.5630318  83.2812214
  38.4044433   4.3036512  82.9021263  39.0152073   4.9606723  84.1212559
  23.7851524   8.4317881  66.6446829  23.7831783   7.7409708  67.3072529
  23.4677720   8.0025393  65.8501720  26.0515738  64.4267368  82.4478245
  25.8543611  65.2997494  82.1084309  25.4765415  64.3292952  83.2068253
  20.1761651 103.0207062  74.7342682  20.8947372 102.4488640  74.4642973
  19.9339676 103.4932613  73.9378691 108.3434868  92.9084969  23.3501792
 109.0818024  92.9032612  22.7410054 108.3897305  93.7649059  23.7752128
  40.0262117  10.3911817  77.0085859  39.7228217  10.0714862  77.8582811
  39.2407823  10.7453680  76.5915871  96.4200306  79.7658539  65.9864759
  96.6154766  79.9626350  66.9026136  96.1765099  78.8401461  65.9870195
  44.4184589  70.0669384  61.7598295  43.7484646  69.7156668  62.3463011
  43.9437628  70.2865601  60.9581661  76.3140059   0.7596859  53.4418154
  76.8784142   0.3767772  52.7702093  75.9246254   1.5253264  53.0194283
  50.6484556   2.7573225  78.7890244  51.4839554   2.5627011  78.3644056
  50.4714823   3.6702830  78.5622740  52.7499294  13.2514226   1.8815586
  53.7033701  13.3099461   1.9428456  52.5715303  12.3135936   1.8116820
  25.4789352  76.4734221  28.3059120  25.9310317  75.7780313  28.7836862
  25.2739024  76.0853672  27.4552631 110.4740810 106.6256618  66.5810823
 110.7236576 107.5481415  66.6356564 110.8144379 106.3351059  65.7349300
  38.7027407  70.7274866  67.0031261  39.5664406  70.7328939  66.5905476
  38.2804656  69.9380445  66.6644621 102.1518612  32.0531178   2.3496176
 101.6484356  31.3131976   2.0100404 103.0640984  31.7691731   2.2910552
  47.1357965   2.2617181  55.9686136  46.6983986   1.7104158  55.3197813
  47.9686022   2.4977294  55.5600071  77.0290279  49.3931818   2.6290974
  77.2288418  49.3038321   3.5609365  77.7250338  48.9068413   2.1871915
  39.6519780  68.3379412  40.2823687  39.6344495  68.6554575  41.1851978
  38.9061689  67.7407932  40.2239656  14.2539251  88.5659504  86.6785622
  14.0132678  87.9158592  87.3386288  14.7380996  88.0694771  86.0187817
  36.3160324   7.0899200  64.0547562  35.5545139   7.1331215  63.4764338
  36.0221505   7.4989861  64.8687124  98.8761234 107.4831963  50.3684139
  98.3153915 106.8057060  50.7463360  99.5366478 107.6499939  51.0408115
  36.0204482  93.5859013  76.4988470  35.6099558  93.5250950  75.6362724
  36.7425013  92.9584122  76.4652443  16.5474200  73.6827183  72.4809742
  16.5179014  74.4116783  73.1006336  16.6534901  72.9058170  73.0299807
   9.4999009  70.4537153  80.6002426   9.8373550  70.9627628  79.8632050
   9.0418756  71.0944986  81.1441612  27.9909301  15.2634335  87.5973892
  28.2317591  15.3753018  86.6777611  28.6592436  15.7491493  88.0807781
  54.4818687   6.0092181  76.7554235  54.1497231   5.6051981  77.5570965
  54.3718481   6.9493735  76.8976736  13.7161064 100.0861931  87.8572369
  14.5935416 100.4630852  87.9227543  13.8307655  99.1682339  88.1030655
  58.7954760   9.1164780  89.8738098  59.5261860   9.0522659  90.4887676
  58.8832712   8.3435988  89.3159771  77.1409655  75.5921268  18.3621502
  77.7602673  75.4440928  19.0768385  77.6254320  75.3529406  17.5720143
  70.4637146   1.1620235  69.1063738  71.2610674   0.7227363  68.8105917
  70.7340384   1.6514598  69.8832941  60.6720495  74.7155046  68.7545109
  61.1562109  75.2789021  69.3581676  61.1637402  73.8942766  68.7468195
  87.9318047 100.8189392  46.2210369  87.0209503 100.9322643  45.9495258
  87.8802872 100.6232929  47.1566105  33.3345914  97.2096252  76.5613508
  32.4466181  97.1754074  76.9171143  33.2173991  97.1188927  75.6156969
   9.6140784  99.5655823  77.3139095   9.8011458  98.9155293  77.9911566
   8.8512868 100.0412750  77.6426840  18.0227458  96.0058498  79.5772839
  18.5723913  95.7853317  80.3292751  17.8389943  95.1642609  79.1599226
 111.5412235  91.2309933  17.8547108 111.9389725  90.3690910  17.7315676
 112.1383476  91.6878986  18.4470868   8.6410153  73.0716324  35.6241798
   8.3071941  72.8935051  34.7449374   9.4161123  72.5155783  35.7032990
  57.7016973  84.8598576  53.4951210  57.3263645  85.5619431  52.9636765
  57.1754026  84.8571682  54.2946482  92.6742458  90.5261993  64.3073416
  91.9802570  89.9531651  64.6333122  92.6699924  90.3922749  63.3595657
  81.4591026   3.6944917  82.5126934  81.6613770   3.3854839  83.3957672
  81.7979240   4.5893937  82.4886036  53.5901928  87.9826832  80.2729130
  53.9031649  87.7946663  81.1577415  54.1288185  88.7175274  79.9794388
  82.4401665  18.4711158  28.9932370  82.7208138  19.2555404  28.5219121
  82.9447174  17.7604973  28.5974097  65.0344181  48.1228971  21.4124656
  64.7172213  48.6813688  22.1222019  64.2841768  47.5728989  21.1869240
  65.3596973  21.7281938  44.2223549  65.4898167  20.9772635  43.6432123
  65.9374619  21.5595794  44.9666595  38.3004308   8.0457407  72.0619392
  37.8703046   8.8902378  71.9275951  38.2184505   7.8819674  73.0014515
  85.7462120  45.7359457   6.0118270  85.2470207  46.5308237   6.1994600
  85.9804535  45.8129501   5.0869298  23.3617115  91.7858315  68.3834076
  23.0439138  91.2230301  69.0894508  23.4711242  91.1958313  67.6376486
  60.3519535  98.1184196  43.3204842  59.6096563  98.7032032  43.1679821
  61.0470772  98.6925793  43.6420059  30.7662559  96.0605431  28.6473060
  30.3978372  96.6870594  29.2701769  31.6474795  96.3893795  28.4697008
  27.4129176  86.7102623  74.0804195  26.7804861  86.9883823  74.7429228
  26.8834734  86.2774658  73.4106445  55.7523584  76.0770845  91.2497997
  56.0636330  76.9763041  91.3534737  54.9034834  76.0650015  91.6919518
  17.4156427  55.5398560  78.4845877  16.7175126  56.1192417  78.7898064
  18.2033277  56.0833931  78.5033512  36.5463877   7.1688956  77.8657722
  36.8569374   8.0253625  77.5720787  37.1395731   6.5434337  77.4496460
  16.2343419  75.7558966  46.0203457  15.7622647  74.9640226  45.7628298
  16.1073399  75.8131599  46.9673491  37.9986310  82.7289963  57.1577406
  37.5866485  83.0537701  56.3571024  37.3671150  82.9268646  57.8493071
  54.5792198  10.2924454  26.2008786  55.2598286  10.4504657  26.8551254
  55.0122643   9.7692972  25.5263281   9.4392580  72.0777702  59.7498465
  10.3328741  71.7777157  59.5835686   9.0315735  71.3595247  60.2337360
  15.0775898  79.6760654  52.9002762  15.6033659  79.7396708  53.6976147
  14.2230666  80.0290871  53.1480694  62.3346186  16.0846674  88.8833332
  61.4474678  16.2543797  88.5664940  62.4053860  16.6017532  89.6857357
   7.7240682 102.9148674  50.0437117   8.4527707 102.7803516  49.4377995
   8.1413257 103.1611729  50.8692217  93.2337475  49.8898268   9.4281596
  93.1169033  49.5746756   8.5319144  93.8765621  50.5949879   9.3521905
  34.2990899  63.2674217  58.2001829  34.6645474  62.6096106  58.7917566
  35.0534058  63.5937738  57.7095366   2.3032454  70.8587837  48.5094261
   2.2634768  69.9425030  48.2354116   1.3983920  71.1655760  48.4515381
   9.4827294  82.4871063  86.9457626   8.9617175  82.7980232  86.2054157
   9.5694453  81.5452290  86.7988396  64.4558716  29.1959357  58.4820366
  65.2795029  28.7965655  58.2020998  64.6166372  29.4682813  59.3854809
  65.9896660   9.0758383  68.5360527  65.5167007   9.5735979  69.2029667
  66.8793488   8.9988774  68.8806820   2.1959199  91.3272762  34.9436951
   3.1063318  91.0991955  34.7556448   1.6832046  90.7632446  34.3647146
  19.3949211  85.3294277  76.2666607  19.6682620  85.3262043  77.1839952
  19.4128871  86.2526798  76.0146284  24.0983319 104.0744781  68.7576389
  24.3100786 104.7845745  68.1517076  23.7516379 104.5163822  69.5327187
  49.0992355  70.0980282  78.4085894  49.0857649  69.3443251  77.8186941
  49.0739822  69.7160244  79.2858982  26.3883638  93.7045765  40.5942678
  25.6631279  93.5283184  41.1935997  25.9932852  93.6687660  39.7231388
  20.5568266  85.5771446  60.7094812  21.3902473  86.0479069  60.7147264
  19.9763060  86.1237812  60.1799393  84.1775990  27.7603841  44.6268129
  84.4657326  27.0259333  45.1688385  84.6334934  28.5195613  44.9901867
  13.9034891  87.7230263  76.1845827  14.6843100  87.8606987  76.7208624
  13.7909329  86.7726707  76.1649275  46.5724850   1.1595803  65.7031631
  46.4433908   2.1036409  65.6119680  45.9167576   0.8891585  66.3459110
  30.0721765  80.6237316  89.2378044  29.1393232  80.4396439  89.1277027
  30.0992298  81.4934826  89.6366024  18.6092222 101.0320187  75.7640791
  18.3669567 100.5080891  75.0005054  19.2450249 101.6641617  75.4288530
  95.2343559  40.9264660  11.8366647  95.6691265  41.7097330  11.4994657
  95.9120369  40.4737282  12.3386800  49.1665983  83.4795952  79.3696976
  49.7578192  82.9771328  79.9302530  49.1530037  82.9974747  78.5428905
  48.4482670  81.9814587  67.1548367  49.0118933  81.8564415  67.9183340
  49.0556335  82.1392632  66.4320326  90.3763103  59.4737720   4.2581862
  90.4759121  59.1812229   3.3522463  90.4812527  58.6780405   4.7797480
  57.9154587  26.9271135  58.9092112  57.8119469  27.1125937  57.9758787
  58.7763214  26.5141869  58.9773130  54.3959713 101.5773582  84.7869015
  55.1111650 101.6653633  85.4169655  53.9210415 100.7964325  85.0712204
  74.2774248   4.1170129  74.5721054  74.7797680   4.2313924  73.7653828
  74.8070860   4.5424342  75.2464294  43.9081764  80.6449890  75.0075150
  43.9268494  80.7136059  75.9620714  44.7628403  80.2809143  74.7767878
  41.6376019 104.6792603  29.8506570  42.5371456 104.8579025  30.1247764
  41.0980988 105.2011967  30.4445863  43.0412483   5.5641717  78.9269257
  43.9124680   5.1711577  78.8744736  43.1218958   6.2359214  79.6040344
   6.8306863  98.7481308  39.4581962   7.3682946  98.6016178  38.6799002
   7.2492862  99.4849968  39.9032021  50.9486246  68.9295816  61.2288904
  51.7906189  69.2234039  61.5766668  50.5923653  69.6980143  60.7829952
  23.3045673  61.8560696  70.1317358  22.8815627  61.0043430  70.0228500
  22.6786709  62.3709822  70.6410027  83.8124371  30.5622745   0.8561217
  82.9589462  30.4287839   0.4438566  83.6632347  31.2587214   1.4955992
  59.0436792  19.9646950  43.7110710  58.0872869  19.9561310  43.6726284
  59.3163347  19.3521941  43.0278921  34.4629526  62.1175241  31.4766622
  34.6596336  62.8113031  30.8472013  34.2099285  62.5824165  32.2742128
 108.3380222  93.6376095  85.7409763 107.8205204  94.3862724  85.4444408
 109.0064812  93.5257339  85.0650501  11.6107714 103.5038471  56.9407082
  12.1602547 104.2503548  57.1795034  12.0286381 102.7538013  57.3638535
  15.1038229  94.2890167  67.8665352  15.9462094  94.0390873  68.2462072
  14.5438397  93.5246181  68.0019569  76.9392729   2.4242875  43.7829638
  76.4998770   2.9820862  44.4248533  77.3398542   1.7287204  44.3044567
 105.9578705  58.5879993  29.7283506 106.9031048  58.7248802  29.6648669
 105.7339859  58.8704252  30.6151080 108.1641769  89.7472477  80.3159142
 108.5240746  89.1894722  81.0055447 108.3115673  89.2549133  79.5083714
  48.8541698  81.7638493  74.9700785  49.5392466  82.4323273  74.9636889
  48.8929033  81.3728523  74.0972328  77.3609161   7.6910335  55.6492233
  77.4172449   8.2704926  54.8894310  76.7445469   8.1269318  56.2377071
   4.6081066  94.4408703  71.4167023   5.3720605  94.2746067  70.8644676
   4.9100301  94.2543697  72.3056841  58.5705376  10.6104553  55.0364017
  57.7782202  10.1648366  55.3362179  59.2885208  10.1027739  55.4145479
  30.7780194 103.3929348  71.3103724  31.5205550 103.7388992  70.8152151
  31.1729813 102.9869461  72.0819998  17.7439010 101.7877960  67.6152420
  17.8100979 101.6221142  68.5556698  18.6289799 102.0419216  67.3539305
  29.0388298  86.7794609  55.2166557  29.4761753  86.8044472  56.0677385
  29.0317178  87.6908493  54.9241781  58.0205297  18.6587560  56.4374065
  57.5519037  17.8249753  56.4752769  58.8414526  18.4520340  55.9906578
  91.9633389   0.1460295  44.8229313  91.0689354  -0.1949525  44.8269653
  92.1260929   0.4022215  45.7307339  23.1043577  28.3210778  47.4026680
  23.6320400  29.0828872  47.6423168  23.7449861  27.6330209  47.2226524
   0.7526787  71.9834852  69.4184542   0.2134398  71.2577629  69.7327471
   0.6159041  71.9907475  68.4711027  68.7220812   3.9820704  65.7577610
  69.1114473   3.1076440  65.7603645  68.8398933   4.2940393  64.8605251
   6.1800331  82.3486805  85.4964638   6.4207482  81.4308453  85.6224155
   7.0127136  82.7962303  85.3462124  56.2884712  34.9524784   7.8176987
  57.1725845  35.0133181   8.1794685  55.9879446  35.8597970   7.7658296
  52.8472614   2.1963872  77.0600510  52.4424028   1.5852660  76.4445448
  52.9673290   3.0006188  76.5550518 113.5199928 104.4511223  65.2261353
 112.8327656 103.8469315  65.5070305 114.0585232 103.9379787  64.6237326
   2.6940253  89.4283867  76.7890167   1.9811018  89.7323418  76.2272501
   3.2597578  90.1934624  76.8931293  67.9201984   0.0253737  71.5489244
  68.7960291   0.1191250  71.9235754  67.6316929   0.9235251  71.3866901
  22.5410151 100.9763432  73.9065313  22.9012060 100.5511379  74.6847963
  23.1576705 100.7585621  73.2075739  24.9494457 101.8535805  82.6762676
  24.9533844 101.3477325  83.4888840  25.2105474 101.2260818  82.0022583
  32.7640343  96.0587311  74.1776466  32.7855253  95.6046867  73.3352613
  32.1526861  95.5487633  74.7090769  51.1240482  18.2218778  43.0670357
  50.8565378  18.6336482  42.2453785  51.6008615  17.4368978  42.7974319
 108.2770348  59.9870443  64.6591520 108.0633259  60.8837843  64.4014359
 108.4673882  59.5397711  63.8345623  99.5835304  92.6863956  82.4328232
  99.3051338  92.5530338  83.3388805 100.3808975  93.2114220  82.5020790
  26.9956446 100.8562851  55.3764677  26.6405654 101.2062073  56.1935997
  26.2357354 100.4942703  54.9207067 111.7908096  95.3656292  63.3366060
 110.8681583  95.1253319  63.2516575 111.7749214  96.2650585  63.6637163
   0.0443534  73.8601780  61.3152456  -0.0568858  74.7243309  60.9162140
   0.2025336  74.0412331  62.2417593  83.7157345   3.4864938  74.6130276
  82.7586746   3.5028866  74.6154022  83.9596939   3.6115396  75.5301332
  25.7509184 100.6301880  60.0089931  25.9178019 101.5405273  59.7647190
  25.3917384 100.6818771  60.8947420  61.6247463  48.6366606   1.6500738
  62.0672131  49.4851446   1.6271071  61.1442041  48.5946751   0.8233038
 104.8909569  21.9840121  54.0390587 104.3406582  21.9499350  54.8215151
 104.4995880  21.3454413  53.4429979 107.0102215 106.1281681  83.1022739
 107.8244972 105.8264923  82.6995659 106.3194180 105.7152176  82.5840950
 112.2913361  10.1802838  84.7709560 113.1112003  10.1406145  84.2785358
 112.5123692  10.6663501  85.5653858 107.2735023  82.2503090  47.7099705
 106.5592003  82.8322601  47.4504709 108.0371094  82.5834465  47.2386360
  51.4221287  92.3926926  70.7242250  50.4806471  92.2622776  70.6109142
  51.7255640  91.5906143  71.1494780   2.4854760 103.3265781  54.4968510
   2.2255877 102.5768757  55.0322342   1.7787161 103.9613247  54.6144009
 104.9280643  98.8788033  82.7632999 104.5651627  98.7518501  81.8867016
 104.7447586  99.7957230  82.9679394  95.0919056  66.9652128  25.1751089
  95.7095051  66.2933016  25.4637814  95.3363609  67.1407223  24.2664456
  23.1554580  82.1669197  63.6403608  22.4703026  81.5045834  63.7304163
  23.9740586  81.6757011  63.7098503  67.3430777  29.9684811  12.7729833
  66.4897203  29.7362351  13.1391490  67.3557281  29.5511365  11.9116497
  76.2716198  93.2005501  83.2480812  75.8615685  93.7892818  82.6144505
  77.1213675  93.6009502  83.4320164  48.6389208  12.3510623  73.1657124
  47.9894352  12.5860918  73.8284063  49.0083504  11.5240145  73.4751415
  93.5964108  23.0893707   7.4991095  93.5558605  23.9317179   7.0462948
  92.8018761  23.0656362   8.0323941  94.7714520  22.7005935  61.7821884
  95.6982613  22.4672437  61.7293215  94.7225094  23.5758042  61.3976908
  95.6409073  26.6675162   0.1090019  94.9886227  25.9671640   0.1251253
  95.4610634  27.1805072   0.8968645  76.6686249  76.7792988  11.6511726
  75.8846474  77.0466661  12.1308887  76.5981770  77.2275066  10.8083320
  73.0557775  83.6503887  91.4443207  73.9194345  83.5026360  91.0589695
  72.4563694  83.1557560  90.8854961  96.8630028   3.2023448  15.1761818
  96.7242908   2.3280358  14.8120749  97.2071171   3.7146741  14.4445133
  86.1340237  24.9747491  81.2070942  85.5957985  25.7508659  81.0515881
  87.0276260  25.2612209  81.0182762  70.1503611   4.6728140  77.9335642
  70.9169340   4.8973143  77.4061251  69.8253059   3.8586414  77.5492525
  10.8447146  97.8855801  63.1061316  10.0781739  98.0305195  63.6607838
  11.5640867  97.7490616  63.7226534  78.5151100  32.0832539  11.1942494
  78.7434769  32.8309584  11.7465341  77.5658941  31.9995785  11.2849164
  25.5061388  87.3355865  54.4455862  25.6551981  86.7029953  53.7428474
  25.0227785  86.8453407  55.1106071  98.1248760  87.7963066  59.2052221
  98.0089188  88.6867619  59.5367002  98.6897469  87.3719788  59.8510551
   8.7348628  93.4074688  54.6234512   8.3519936  93.9270973  53.9166069
   8.0468231  93.3624458  55.2873802  40.2850819  79.2538691  56.4088249
  40.9852505  79.8831558  56.2356377  39.8483348  79.1430664  55.5643129
  35.1242185  92.6338673  78.8830805  34.6287084  91.9677067  78.4067059
  35.4445100  93.2262325  78.2028246  22.0921040  86.9062042  69.8326969
  22.9174638  87.3364162  70.0561428  22.2146869  85.9967518  70.1048994
  63.0902290   0.4488230  56.1607552  64.0148735   0.3966756  56.4027166
  62.9486418  -0.3074448  55.5913305  30.7437444  94.8034859  64.0412426
  31.4800334  94.5201969  64.5833254  30.1191139  95.1779366  64.6624136
  54.8326302  -0.1796186  83.8982391  54.4951725  -0.2029791  84.7936726
  55.1527357   0.7154851  83.7861919 111.2490082  97.9590511  64.1447163
 110.8909798  98.6198902  64.7374630 111.1802578  98.3543777  63.2756758
  84.8868179   4.8796380  85.8209419  84.8221970   4.2714846  86.5572929
  84.2881012   5.5919617  86.0453701   9.7385031  73.5820484  32.8428364
   9.3380708  72.9013538  32.3019648   9.6907157  74.3732977  32.3062968
  34.4504428  86.6668034  42.4080181  34.3291044  86.6895580  43.3572197
  33.5633039  86.7158127  42.0519066   4.2304242  37.1372437   4.7740012
   4.9769792  36.8856621   5.3176868   3.9446700  36.3196731   4.3663833
  62.6130342   1.6284351  80.0948906  62.8154373   0.7003490  79.9768972
  61.7188787   1.6370395  80.4364204  45.1190710  77.7480125  53.3375883
  45.0172567  77.6400995  52.3919535  44.8205996  76.9169426  53.7070036
  13.6566210  78.7165785  41.6133451  13.5067713  77.8329563  41.9494724
  13.1219745  79.2796373  42.1731186  69.9040318   0.2858877  59.1827536
  70.8024406   0.0419922  59.4054794  69.6364212   0.8802415  59.8837233
 108.9793301  69.4703102  74.0438461 108.9008808  69.0812445  74.9148846
 109.6650696  68.9591455  73.6140823  26.8059206  62.4469042  87.3603249
  27.4975848  62.7877998  87.9274464  25.9949684  62.7787304  87.7456570
  70.6605816   9.6020597  67.1581173  71.2141085   9.8130244  67.9100037
  70.5783701   8.6486769  67.1812248 103.7843513  89.8755836  45.8973026
 104.1971779  90.6303787  45.4776716 102.8497505  89.9857521  45.7223749
  43.9205360   4.1226017  55.2872086  44.6739197   3.8068336  54.7882700
  43.2315397   4.2385742  54.6329403  29.3184876 104.5924187  27.0295644
  28.6461520 104.8947048  26.4189744  29.5226216 103.7031841  26.7400336
  52.8167677  76.5177774  67.9229498  52.2426462  76.6102886  68.6832523
  53.4084702  75.8021450  68.1552935  12.6366782  46.2955379   4.7696140
  12.8565931  47.1724081   4.4550198  13.3806586  45.7533932   4.5073125
  47.3296261  93.4691334  87.2730350  47.2453403  92.6244450  86.8307304
  47.4224091  93.2462788  88.1992912   7.0624936  90.6228256  75.3497601
   6.7133343  91.4822292  75.5858564   7.7482116  90.4569244  75.9966755
  43.6198521   3.7351808  61.4853573  43.0181599   3.6153778  60.7506132
  43.5979748   2.8994751  61.9515657  18.8162053 101.0692406  61.6274738
  19.1242218 100.2695560  62.0539379  19.4745457 101.2519932  60.9570885
 109.1379356  65.4185820  53.3538580 109.3247032  66.2886953  53.0013514
 109.9989128  65.0154018  53.4651852  42.1155167  79.4744778  72.1357489
  42.0136833  79.7208261  71.2164164  42.3219013  80.2955914  72.5822973
  56.5267849  81.3681984  42.4815178  55.9620237  82.1047974  42.7153778
  56.1049271  80.6069851  42.8800488   9.7919989 104.7627449  66.9739151
   9.7940803 105.5860710  67.4621439  10.6637752 104.3954563  67.1199942
 109.8907661  94.1264629  77.4955511 109.2745018  94.8111153  77.7557564
 109.5104027  93.7510490  76.7014360  29.6834230 102.0977592  59.0423250
  29.3327856 101.3489246  59.5245361  28.9150238 102.6285458  58.8324118
  34.5230532  81.0939884  51.3778830  35.2379107  81.2376022  51.9980288
  34.0344405  81.9170761  51.3808107  58.3633566  79.6276045  50.9778976
  59.3150473  79.5281315  50.9529591  58.2122421  80.3273010  51.6133690
 110.1304626  60.4075098  49.6262312 110.2906036  60.8347654  50.4676819
 109.4880486  60.9682178  49.1913319  20.8444166   3.2664040  62.8937244
  21.6758442   3.2395196  63.3672667  20.7095623   4.1938367  62.6990080
  31.8220282  81.3052273  67.5319624  32.3295379  80.5349350  67.7875471
  30.9625769  80.9575748  67.2938108  30.9717512  99.8371983  43.3841801
  30.0727510 100.1301861  43.2352400  30.9235907  98.8824272  43.3359432
  72.5539351  19.0313506  92.6560307  72.5234270  18.4445477  91.9004059
  72.4283791  19.9051356  92.2859383  75.9635735   7.3323041  74.4936657
  75.9450483   8.1764692  74.9445248  75.8816385   7.5542873  73.5661697
  73.7729931  25.1631999  51.2929487  73.8311243  25.6768608  50.4873419
  72.8388262  24.9803019  51.3935041 107.6438808  13.9985800  45.8670044
 107.3837566  13.0854142  45.9882402 106.9259071  14.5046520  46.2473202
  51.3026857  34.5781302  65.8359051  51.1929274  33.6587977  65.5929756
  52.2407389  34.7414303  65.7378292  65.6884146  68.7463903  51.1624193
  65.6674147  69.7013664  51.2241507  66.6201925  68.5275698  51.1507225
   7.9585660  82.5808048  61.6895008   7.3776180  82.0259190  62.2099209
   7.4847615  83.4078884  61.6019154  58.1728172  14.3027091  88.8323784
  57.9739952  15.1605284  89.2076778  57.7052975  14.2924905  87.9971790
  53.0441427  99.3908405  74.4844151  52.1777487  99.3812561  74.8912287
  53.1727839  98.4946632  74.1737127   6.3837332  68.7595701  58.2129574
   7.3161542  68.9225197  58.0705786   6.3358444  68.4009600  59.0991497
  89.5175648   4.5657316  85.0438309  90.4669952   4.5354018  85.1617241
  89.2110348   3.7114841  85.3480148  81.3461018  46.4239693  83.3074474
  81.9517708  46.9704676  82.8067112  80.9495831  47.0232773  83.9397717
 106.0049534  30.4114771   9.3454278 106.5996742  30.9316754   8.8051206
 105.2198219  30.9529328   9.4268471  68.7667847  94.7048283  52.1881819
  68.3098364  95.5459023  52.1823740  68.7144756  94.4101048  53.0973721
  12.1565247  51.6379833   3.2661027  11.4517391  51.6067314   2.6191616
  12.1657038  52.5467539   3.5665792  40.5354071  73.1104326  52.1891642
  41.3303089  72.6743650  51.8822336  39.9713230  73.1514692  51.4169216
  54.1723251  80.7083035  71.0051298  54.8886728  80.8964825  70.3987741
  54.1060686  79.7534084  71.0086060  15.8441770  82.1074390  14.0993261
  16.5486872  81.5357494  14.4043899  15.3860199  81.5903378  13.4368098
 103.6039639  32.7700090  60.8722973 103.7294865  32.2383523  61.6583109
 103.3509922  32.1416378  60.1959944  71.2017679  15.5803788  57.9437304
  70.6615734  15.3324485  58.6940289  71.3913012  16.5084839  58.0813169
  63.7525988  85.4996872  39.9478722  63.5063314  84.5765781  39.8890185
  64.1930294  85.5765820  40.7942390  39.0401411  97.1591473  69.0346098
  39.6737003  97.3843575  69.7158718  38.2213855  97.0120430  69.5081377
  60.9551954  83.1687164  75.6927204  61.2987471  82.3046684  75.4654980
  61.7300558  83.7281895  75.7457685   0.9353097  97.7783871  47.7118444
   1.6222145  97.3663902  47.1877718   0.7769261  98.6184788  47.2812748
  18.3851504 104.7583771  77.2893810  18.4273744 105.5394840  77.8410292
  17.5981224 104.8821259  76.7588091  31.1037159  96.6518402  62.1795273
  30.8530664  95.8460331  62.6312876  31.7732811  97.0427704  62.7408504
  65.2553225  12.3399651  41.4816427  64.3678999  11.9999576  41.5961123
  65.8054543  11.5588093  41.4234781  23.8204575  77.5599480   4.4142920
  23.8309073  78.3246326   4.9899471  24.7012377  77.5292873   4.0407714
  47.0822334   5.0518048  54.0608692  47.6478195   5.8044773  54.2335749
  47.6646900   4.2948976  54.1246271  45.6418657  66.1023045  57.6621056
  45.7406521  65.7584620  56.7742729  46.1106968  66.9367313  57.6493359
  69.8019361  98.2274723  70.9713221  70.0961637  98.8548374  71.6316795
  69.4900227  98.7703896  70.2473211  99.1926765  27.5450873  85.3188133
  99.8941994  27.1016431  85.7957268  99.1474247  28.4156609  85.7141399
   4.0348980 100.4439259  74.3355989   3.6671016 100.8482647  75.1213884
   3.3797312 100.6019402  73.6558771  83.8594818   6.7429250  90.1395702
  84.1409111   7.6507825  90.2528000  83.3267879   6.5590245  90.9132957
  26.7947793  90.1857948  51.7612934  26.7951417  89.3238831  51.3449526
  27.5510478  90.6346512  51.3833809  68.8917255  13.6377478  89.7295570
  68.4456778  12.8915143  90.1300716  69.6852875  13.2646513  89.3457699
  15.0953841  18.9099360  47.0635033  15.6382561  19.5584702  46.6152620
  14.2305183  19.0045345  46.6643906  16.3650680  93.8264847  70.1272535
  16.5093350  93.3827114  70.9630060  16.0261655  94.6883965  70.3691053
  71.8800163  88.8755703  74.6293879  71.8152142  89.3869686  75.4359245
  71.0280800  88.4467316  74.5485973  79.1084766  82.7770233  66.3143492
  78.8187408  83.6892986  66.3079357  79.5658016  82.6651001  65.4809475
   2.7642155  49.3439293   0.4523920   2.1126974  49.8517227   0.9360249
   3.5935059  49.5421648   0.8873756  27.9308987  97.1688747  68.9101410
  27.3087168  96.4421940  68.8775158  27.3974419  97.9481316  68.7538862
  26.9104019 106.6889390  68.9102507  27.2633281 107.5313114  68.6237526
  27.2034707 106.6025124  69.8173714  10.7027900  14.3301988  67.4413633
  10.1493859  15.0577497  67.7253437  10.1383245  13.8083482  66.8710279
 112.3732090  96.5883064  51.2539148 112.1551800  96.8833447  50.3698015
 112.3368740  97.3823833  51.7871714  50.2467823  88.7569141  34.6163869
  51.1630821  88.5555649  34.4264317  49.9496555  88.0286789  35.1619363
  78.0818272   2.8193459  25.7186222  77.1927404   2.7383354  25.3733802
  78.1357431   2.1501166  26.4008665  48.9405870  91.3129616  70.3080606
  48.4256077  90.9153843  71.0101748  49.0640259  90.6077290  69.6727324
 109.8895741  75.7488489  45.3991985 110.1594639  76.4428902  44.7977877
 108.9375210  75.7097483  45.3080368  34.4706488 104.5151424  46.2031841
  34.3962264 105.4625511  46.3176918  35.3610897 104.3087578  46.4873505
  48.9378214  88.0513573  81.8437290  48.7756062  87.1836185  81.4736557
  49.8866844  88.1630802  81.7853355  54.1030741   8.4105831  81.9754791
  53.2622051   8.0334151  82.2341633  54.6279621   8.3971506  82.7758217
  57.4606133  77.7701902   6.7254239  57.0583391  78.6308575   6.8422902
  58.3174849  77.9564285   6.3416004  18.7085497 103.0053425  90.5393410
  19.5170140 102.5215816  90.7084370  18.9329863 103.9179134  90.7212162
  18.7851477  86.5681934  52.6267242  18.2938564  86.1337471  51.9294977
  18.9959741  87.4308395  52.2694778  21.5777731  73.1999207  22.8490162
  20.9844947  73.8595200  22.4895978  22.2054410  73.7007856  23.3699822
  62.4058104 107.3544407  50.7376003  61.8708515 107.1219921  49.9786425
  62.8272057 106.5340996  50.9939051 107.4249458  29.3498230  11.4265060
 106.7302513  29.9025178  11.0685289 108.2289696  29.6932364  11.0368359
  59.7582006  99.8908329  83.3776474  59.1276598 100.5613327  83.1148052
  60.0647545 100.1747894  84.2388248  65.1327896  13.6556756  49.7208452
  65.8056450  14.1178906  50.2206993  65.1304007  12.7701473  50.0842571
  62.2763205   5.7154554  37.1991634  62.0432758   5.9800243  38.0890656
  63.0026054   6.2914592  36.9604897  40.0478268 101.0086632  84.5054340
  39.6685791 100.3880119  85.1276875  40.9880114 100.8310986  84.5329094
  51.7778730  91.6316319  73.5488415  52.1347761  92.1065331  74.2993879
  51.2893009  90.9049797  73.9354992  40.8953381  74.7569418   3.6141554
  40.2636719  75.4757023   3.6389595  40.6596994  74.2051506   4.3599659
  21.4354849 102.8191090  79.9376822  21.1647725 103.7034512  79.6909332
  21.2996340 102.2975540  79.1466331  52.2050714  98.5345459  79.8812342
  51.8287468  97.7086163  80.1853085  51.5487576  99.1939926  80.1062012
  34.0352130 102.7993679  74.5464754  33.2714772 102.7683735  75.1226473
  34.3805146 101.9067001  74.5582533  29.5300508  99.7063923  66.4867449
  29.7483063 100.5788326  66.1589575  29.0544391  99.2920876  65.7667589
   2.5655648  23.1716466  62.2749472   1.7200410  23.5289741  62.5463104
   2.6467475  22.3519111  62.7624607  67.5493526  91.2920856   3.0768928
  67.6641369  90.6750679   3.7996262  68.3499575  91.8167305   3.0804324
  36.5787387  65.9158564  65.4921103  36.8847394  66.7641973  65.8129168
  36.7240882  65.3163910  66.2240601  64.0685129  73.4630919  47.6447010
  64.7934914  72.8730154  47.8507328  63.4102869  72.9004717  47.2367477
  28.9645958  95.7849979  54.0121508  29.8318672  95.4362774  54.2182159
  29.0129781  96.0143471  53.0840921 100.8070469  94.1703892  57.1455288
 100.3148746  94.1374111  57.9658413 100.8795643  95.1039886  56.9470930
  33.3235455  42.0617676  12.3325205  33.7035084  42.2962904  13.1791961
  32.4863291  41.6523457  12.5508690  37.3907733 106.6232204  73.2364035
  36.7391396 105.9729004  73.4984732  38.2078147 106.3150597  73.6284590
  31.1884522  94.8218822  40.9365416  31.6111040  95.3255463  40.2408981
  31.2931466  93.9089012  40.6687021  90.2522469  15.3758359  75.9874058
  89.4877625  15.7630849  76.4138174  90.5594254  16.0534239  75.3851175
  38.4724903  61.3678360  48.9026213  38.8700438  61.7766905  49.6713972
  39.1193295  60.7249928  48.6117887  28.2184434  89.9142265  65.3403091
  27.3882866  90.3783798  65.2324295  27.9682755  88.9954090  65.4373169
  81.7992115  22.7498865  60.2271271  81.8932343  22.5980306  59.2867374
  81.1448574  22.1105528  60.5087376  53.1969070 103.6048317  75.6859636
  52.9004574 103.8240242  74.8026133  53.6253691 102.7542019  75.5906343
  58.6892843  86.7715454  75.2159119  57.9042339  86.2338161  75.1120901
  58.7791634  86.8839741  76.1622238  55.3697205 103.1775379  72.8389883
  55.0413322 103.5768890  72.0334435  55.5985737 102.2829628  72.5868082
  84.5484829  46.5922022  84.0195084  84.4566822  45.7534981  84.4715977
  84.7398663  46.3554430  83.1120205  96.6163540  29.7923374  19.1138041
  96.5268803  30.7149982  18.8752174  96.6608715  29.7954249  20.0699639
 103.7013054  61.9649410  49.1254711 104.2473125  62.7127028  49.3683100
 103.8069153  61.3464737  49.8483658  14.9024689  55.7256651  35.2922773
  14.6731567  56.6299772  35.5064440  15.4035938  55.4201412  36.0484266
  34.8181462  79.3796015  70.0284004  34.4057083  79.6625566  69.2122746
  34.0903139  79.2770004  70.6415606  87.8355217 107.3822594  80.9382915
  86.9688320 106.9874191  80.8424473  88.4171772 106.8066788  80.4416847
  90.3236675  17.4154365  59.3627214  89.9636745  16.6904426  58.8518238
  91.1510658  17.6258504  58.9298677 112.7254677  60.3125954  53.7431765
 112.8371906  59.7393274  54.5015383 112.6867104  59.7160339  52.9956150
   5.5606085  39.8069048  44.3522978   4.7372231  39.4814467  44.7160912
   6.2342048  39.4629931  44.9390030  22.4642301  37.2515178  76.2060976
  22.1051908  37.9421711  75.6490326  22.0656943  36.4462209  75.8760977
  89.3514824 103.5701466  55.4890776  88.9471436 102.7025795  55.4800558
  88.6618900 104.1524792  55.8077908  16.2234771  74.9731159   4.6160069
  16.0685301  74.9591446   3.6715347  15.3570151  74.8470306   5.0027609
 109.0748024  33.7656927  45.9310436 108.6759949  34.0633893  46.7487001
 109.9390507  33.4450555  46.1889315  29.8056054  58.2160425  60.6932211
  29.3669248  59.0313148  60.4500723  29.2726898  57.8601456  61.4042521
  96.3611221  88.3566666  47.1950817  96.6802025  89.2541027  47.1000719
  96.9719124  87.9490471  47.8090954  15.8890676  44.1368294  77.4021912
  15.0168395  44.4704151  77.1920252  15.7705879  43.6557770  78.2212067
  39.1602015  42.0219898  59.4902277  38.4889865  41.8912458  58.8204432
  39.9733400  42.1291733  58.9967203  13.5998476  35.0490713  39.5380688
  13.7877381  35.6326675  38.8029861  13.1593359  34.2977834  39.1408944
   2.5428984  36.2192917  43.6530828   1.7615487  36.7143798  43.8992786
   3.0110544  36.0852718  44.4771576  33.7810445  27.1053076  90.6181431
  33.7124348  27.1436453  89.6641731  32.9146671  27.3653102  90.9312248
  10.0784063   8.9559352  46.8975067  10.1834297   8.7325555  45.9726810
   9.2066467   9.3474919  46.9518280   6.1339933  57.4648571  39.4933653
   6.7763346  57.5905704  38.7949204   5.4331774  58.0838251  39.2884946
 107.0932007  89.0119076  47.8739452 106.9568920  88.0679703  47.7924967
 107.2037888  89.3165302  46.9732761  16.8151951   8.6177605  62.0000696
  16.3994026   8.8814753  61.1792135  17.3480201   7.8579909  61.7653799
 109.9120235  45.6702471  69.7088146 109.1088867  45.3114462  69.3313646
 110.5842400  45.4981613  69.0494585  71.8405294  92.8696251   8.6133403
  71.5204191  92.1983337   9.2159456  71.5415049  92.5799942   7.7514058
  18.2845330  34.8753190  38.6189961  17.5351870  35.3989601  38.9027452
  18.1063211  33.9983702  38.9587474 106.9679832  76.3122892  87.2910023
 107.1239185  76.8980742  86.5502167 106.1203003  75.9092426  87.1033287
 103.1146908  44.3343115  80.7069206 103.3582401  45.1207161  80.2185726
 102.5141525  44.6485043  81.3828468  92.5037956  21.9891047  74.0064621
  93.2273197  21.6111732  74.5063782  92.1901131  21.2699342  73.4581614
 106.1419392  41.3637114  55.0287724 105.7025719  42.0721769  54.5583820
 105.6845284  41.3137245  55.8681202   4.1744778  36.9945550  80.3582191
   3.8556442  37.4800181  81.1190796   4.8461190  36.4107776  80.7108307
  13.9994907  21.8929911  60.1003408  14.6385479  22.5845718  60.2722502
  14.5264137  21.1434746  59.8231936  34.7756958  54.6798182  56.6243696
  34.0574789  55.1998997  56.2639380  34.8684454  54.9910975  57.5247812
  42.0121193  62.6108313  54.7838879  41.6624451  61.9859648  54.1486740
  42.6411200  63.1324720  54.2854118  40.6820488  47.2018433  84.4749546
  40.2808666  46.3961458  84.8007298  40.2232504  47.9023457  84.9386692
 112.6708794 101.7859364  49.4551563 113.5732746 101.8724251  49.1478443
 112.1821213 101.4968204  48.6846066  93.6210060  51.1149454  85.9279060
  94.3831444  50.9605455  85.3697586  93.9850998  51.2191629  86.8070030
  23.6906767  70.2338743  74.1658258  24.4846392  69.7060728  74.2511368
  23.1568193  69.7618771  73.5267305 105.5679798  71.7698479  24.8557043
 104.6771431  71.8562126  25.1950884 106.1299419  71.9607544  25.6066895
  96.1655235  43.3081579  83.5134029  95.7484436  44.0127993  83.0176640
  95.6726742  42.5230932  83.2746315 111.8849468  36.0571289  55.5523682
 111.7443752  36.4431453  56.4169264 112.1130753  36.7994905  54.9928236
  11.7466056  53.2390594   5.4635900  11.7171872  54.1947889   5.5077273
  10.8703446  52.9856014   5.1734871   0.3534651  12.1620989  61.5034676
   0.7035589  12.5430107  62.3088074  -0.0922442  11.3648081  61.7896509
   9.1421300  54.7966146  42.4530220   8.4092879  55.3319931  42.7572346
   9.7161740  55.4127455  41.9979525  28.1097341  36.5804982  43.6566544
  28.4811378  37.4601245  43.5892296  28.7734532  36.0756445  44.1265821
 102.7721119  70.1841021  63.6705351 102.6597309  70.4264641  62.7513695
 101.9306946  70.3908491  64.0773487  56.7045212 100.8783722  12.1359921
  56.7525387 101.0879993  11.2032628  56.2218571 100.0525284  12.1713352
 107.8145885  35.3594565  79.5044661 108.1502819  34.4630599  79.5077085
 106.8660641  35.2597046  79.4233179   5.1100141  53.8774872  51.9610023
   4.6332350  53.2408953  51.4283991   6.0320401  53.7109184  51.7651606
  97.8286648  33.0443525  62.7705717  98.7703896  33.0671716  62.9405022
  97.6999950  33.6628199  62.0514250   7.3343349  38.4711623  48.1391621
   7.7717078  38.0500412  47.3991632   7.1207708  39.3490863  47.8231335
 112.6654434  22.2053123  71.3186455 112.2633266  22.0719314  70.4603052
 113.0311012  23.0889440  71.2771320   3.1919512  24.2423820  49.4436979
   3.1368321  23.9162397  50.3419304   4.1193610  24.1685295  49.2185545
  42.6610708  64.5454311  64.4543982  42.3943710  64.5618010  63.5352516
  42.2867680  63.7342119  64.7979879 103.9490604  31.8452549  75.5408287
 104.7430706  31.9876289  76.0561037 103.9178944  32.5885653  74.9385452
  48.6579704  90.5375671  16.5246069  47.7290487  90.5039501  16.2961102
  48.6668825  90.7022858  17.4674845  24.1892290  48.5901737  33.6876845
  23.6055422  48.5064363  34.4416928  23.6207962  48.4581900  32.9289389
  13.6851335  63.0045366  64.7002316  13.1918418  62.5219774  65.3635836
  14.3009901  62.3630905  64.3459749  17.8322792  60.1514912  39.6335006
  18.3587480  60.6490755  40.2591801  17.9306078  60.6252337  38.8075876
  47.0304728  68.6308813  60.7502365  47.2218132  69.2400646  61.4633417
  46.0751057  68.5741234  60.7335663  95.8038902  92.3648262  33.6916947
  96.7594528  92.3703384  33.7472773  95.5173016  92.8849602  34.4424009
  68.1123352  67.3958635  21.0858703  69.0360260  67.5474310  20.8857346
  68.0491304  67.5190735  22.0330000  10.7509601  79.2031908  58.3444452
  10.5505335  78.3929396  57.8758717  10.1882017  79.8612833  57.9364681
  98.6678886  52.9109621  55.0694418  98.8926506  52.7556467  54.1520596
  99.0976334  53.7387896  55.2844858  16.4402997  30.6353092  92.1867466
  17.0892298  31.1219478  92.6949787  16.2579226  29.8572063  92.7135563
  45.4933214  37.0590901  78.6847782  45.7426310  37.4593329  77.8517818
  45.8972073  37.6174092  79.3491507  13.0166495  12.1235585  29.3517160
  13.7689316  12.2293639  28.7693834  12.6644254  11.2606573  29.1336083
  17.8952289  22.9340887  49.5539141  18.2925999  23.5394597  50.1798916
  17.8135753  22.1109343  50.0355577  95.9749985  58.3599043  35.1389503
  96.3288021  57.6142502  34.6541286  95.0260544  58.2799292  35.0423217
  92.0194340  46.0332203  70.7852602  92.2785473  46.4066792  71.6276455
  92.1278667  45.0889349  70.8983850  21.4910102  68.6650991  45.2897549
  20.9183669  69.0320396  45.9632969  21.0096884  67.9100084  44.9515247
 102.6920128 103.8499069  62.5553417 103.1549931 103.3233166  61.9037342
 102.4431992 104.6465302  62.0866060  16.9876885  78.7500143  48.4892130
  17.1894097  79.5006609  47.9305744  17.2810781  79.0146017  49.3610764
 112.9425716  42.0093536  53.1048870 112.8459358  42.8267860  53.5934544
 112.2680855  42.0542097  52.4271774   6.6316229  37.6979589  35.9523296
   7.2810584  37.7149558  35.2493525   6.1013961  36.9222045  35.7698584
   4.5284835  17.4204004  63.9250851   3.6927775  16.9542265  63.9025307
   5.0922304  16.9305372  63.3263779 111.7272568  40.4563141  17.4112403
 112.4474621  40.1192904  17.9441190 111.8582630  41.4044762  17.4036276
  14.5701838  32.2471380  22.9733944  15.0040114  32.2159338  23.8260674
  14.7519088  31.3932705  22.5808120  16.0689509  36.0724425  20.1228881
  16.4615428  35.3641152  20.6331587  16.5699184  36.0862803  19.3073678
  37.3362637  34.4540334  41.1217451  36.5974474  34.9775481  40.8114052
  36.9470000  33.6171913  41.3755178   8.7292176  39.9209929  40.1270676
   7.9221237  39.9116921  40.6415987   8.7034333  39.1056299  39.6263123
 105.1569080  31.5314817  48.6004019 105.1728821  32.1994662  49.2858028
 106.0422611  31.1676407  48.5998583  34.2763424  42.4858713  37.2484946
  34.7421575  41.8401527  36.7171812  33.4283447  42.0803738  37.4293399
  81.2833786  42.5239182  75.4360819  80.7911205  43.1467199  74.9012661
  80.6637192  42.2448778  76.1101627 113.1718063  79.7802305  33.6719608
 113.3310795  80.0845051  32.7784967 113.5706997  78.9106798  33.7035394
  29.9932671  91.8352795  85.6556320  30.8885288  92.1692467  85.7122135
  29.5530343  92.1987724  86.4239502  24.1697764  55.5835915  36.4472365
  23.3397532  56.0552359  36.3776135  24.4630075  55.7459021  37.3438406
  34.6810436  76.6422701  67.8354406  34.2762280  76.0803270  67.1747017
  35.5842948  76.3308859  67.8938437 111.1551952  47.2846222  89.6836948
 110.7484245  47.0502949  90.5178833 110.4187775  47.4129725  89.0858269
  14.6750104  76.2358189  25.9711385  14.3450463  76.9656658  26.4952397
  15.4008043  75.8811140  26.4845967   2.5583625  61.1134577  59.9836159
   2.6677352  60.9641981  59.0444708   2.0106742  61.8964911  60.0395012
  48.7063408  85.8772659  76.6395330  48.4155273  86.3238144  75.8443880
  47.9855299  85.9958363  77.2580767  69.1411686  94.8089409   7.2519898
  69.2306948  94.1681385   7.9573953  68.9285040  95.6284904   7.6984638
   0.1619387  24.4185781  75.4370642   0.0794554  23.6274290  74.9046040
   0.1592493  24.1009355  76.3400173 108.4410000  39.5800018  33.5638523
 108.6562538  38.9530611  32.8733158 109.1549778  39.4948936  34.1956902
  34.0842605  -0.0197937  35.6190372  33.2939959  -0.1043842  36.1524796
  33.8988495   0.7120866  35.0306439 111.6445923  26.4632487  58.7492418
 112.4855328  26.1577654  58.4090519 111.8761158  27.0433950  59.4745398
  23.1429982   6.3618046  73.2480812  23.0095673   5.4140151  73.2591915
  22.6104999   6.6871655  73.9739037   5.4601920  31.3322091  41.1555815
   4.6872202  31.8909121  41.2368011   5.5822873  30.9635925  42.0304775
  34.9616933  47.2221756  75.8095312  35.8510900  47.4514723  75.5400419
  35.0817251  46.6105080  76.5359545 108.8975239  58.9173698  82.6669216
 109.4244671  59.4429922  83.2688236 109.3801022  58.0951405  82.5815678
 105.1183414  69.4467688  66.6958141 106.0564613  69.4008160  66.5113020
 104.9774647  68.7965488  67.3839998  86.4003086  32.0832157  54.1360378
  86.1402225  32.9980183  54.2443085  86.4145660  31.7313170  55.0260925
  98.3598042  28.5486126  56.3775635  97.9201794  29.3287182  56.0393429
  98.3521938  28.6624837  57.3279381  25.1237583   2.5179440  42.7624607
  24.4624043   3.1608713  43.0183601  24.6277881   1.8241718  42.3278046
  27.3990726  32.8236341  75.4190588  27.8062153  33.5719132  75.8555746
  26.6991234  33.2065892  74.8902416  13.7808299  61.1133575  58.8048649
  13.2250154  61.4837217  58.1192017  14.6567678  61.0951471  58.4193373
  44.4476891  99.7685909  47.2242212  45.2111959  99.5738792  46.6807365
  44.2307901 100.6772995  47.0157957  22.1367502  51.1294127  29.0867209
  22.2002792  50.2258873  28.7771440  21.6570544  51.0664320  29.9126482
  17.0014668  54.5788765  66.4832115  17.8130722  54.0807009  66.5799141
  17.2764575  55.4948473  66.5232420  37.3937583  54.5424509  64.6589708
  37.3271275  54.3263578  65.5890799  37.0985484  55.4512358  64.6024752
 111.2673283  48.1081867  59.7001982 110.8925533  47.2614384  59.4577122
 111.4185619  48.0419922  60.6430531 105.2945328  18.8768554  14.5641470
 104.5050430  18.9504981  14.0279508 105.5093002  17.9442108  14.5473993
  10.5124021  40.9901476  77.3769045  11.2863731  41.0638857  77.9352617
  10.1987517  40.0970316  77.5190210   1.8260898  60.2702284  33.8363433
   1.9537871  61.1514091  34.1876984   2.3131445  60.2680349  33.0123258
  10.7527781  69.9203348  72.4144506  10.2875972  70.3945780  71.7253017
  10.2758431  70.1343155  73.2163095  92.9258537  49.0607643  92.0528126
  93.3684063  49.7211981  91.5197182  93.6211681  48.6816740  92.5904560
   7.8178215  94.0035439  51.9791460   7.8047848  93.2936382  51.3371992
   6.9006437  94.1185474  52.2277212  92.0922661  58.7576962  17.8840029
  92.6702690  57.9991102  17.9658532  92.6236153  59.4165421  17.4369788
  48.9013243  57.5973368  61.4990711  48.9944649  56.6739750  61.7335081
  47.9937458  57.6797390  61.2062502  85.9894180  72.9858589  28.8114285
  86.6712093  72.9340982  28.1415725  86.4007759  72.6315165  29.5997548
  31.0978270  66.4586782  57.7395391  31.2007093  65.8998060  58.5098028
  31.9600487  66.8550730  57.6143456 105.5254936  44.8741961  63.3074427
 105.7495975  45.7393360  63.6502838 105.1931572  45.0445509  62.4260998
  41.2312031  39.0263581  53.5575914  42.1783400  38.9479661  53.4434938
  40.9562063  38.1662512  53.8751173  28.7700343  61.3848734  21.2413549
  29.6294761  61.1183691  20.9149027  28.7798929  62.3406076  21.1893606
  32.5728512  85.5638027  32.3341799  31.8940115  84.8906231  32.2868967
  32.5493145  85.8642864  33.2426858  12.4361944  52.5460911  89.8698902
  11.9463766  51.7237902  89.8814392  13.2988715  52.3062754  89.5315075
  22.3562574  80.1912785  66.6683388  22.7803206  79.6934080  65.9693956
  22.7812910  79.8877048  67.4704742 106.9072056  17.5912452  60.1990414
 107.1958923  16.6894615  60.0587797 106.0676098  17.5064194  60.6508446
  31.5510321  40.1406336  66.3937092  32.3100138  40.7217407  66.3437843
  30.8980179  40.5502605  65.8262491  34.3970442  42.1687841  60.0517416
  35.3253388  42.3970270  60.1008272  34.0133786  42.8448677  59.4932175
  27.7021575  97.8251457  81.1112404  27.6259279  97.2903919  81.9014740
  27.3390341  97.2773075  80.4153633  67.1104813   2.3733604  51.5434122
  67.9814196   2.3232338  51.9373465  67.1357298   3.1653240  51.0063934
  19.0474772  90.5481625  54.8177385  18.5378861  90.1439285  55.5199814
  19.9165761  90.6786346  55.1970482  95.0815773  86.8360519  85.1654339
  94.9845409  86.7968845  84.2139721  95.2160168  87.7647305  85.3544426
   7.0030642  81.6071320  50.7678747   6.7619783  82.0575428  49.9584055
   7.7085400  81.0135078  50.5106831  15.5115283  57.6833868  79.0104580
  15.7786834  58.6022711  79.0331268  14.6272469  57.7000141  78.6443901
  21.6748476  81.8176365  73.6335278  21.3806272  81.3041973  74.3858862
  21.2248039  81.4255333  72.8852272  43.7212658  75.2328968   6.9937086
  42.7810907  75.1036882   7.1186477  43.8067722  76.1564922   6.7572927
  33.3734322  41.8237925  47.6990509  32.7675843  41.1960506  47.3052025
  32.9771757  42.6783085  47.5287247  11.7950904  69.0141630  30.6644893
  11.9061494  69.4507885  31.5090322  11.7413568  69.7292089  30.0304151
  18.1878352  61.5273714  37.1760845  17.9541743  61.7571211  36.2767220
  19.0141106  61.9843769  37.3330712  93.3375645  73.6110449  47.8149986
  93.8188171  73.9379692  47.0549059  93.9501190  73.7043571  48.5445929
  35.6811285  83.5415936  68.2678270  36.3001585  82.8576946  68.0122566
  36.2012291  84.1525078  68.7898588  37.1078014  50.2022123  27.0863318
  36.3917851  50.7316017  27.4374676  37.7171731  50.1077461  27.8184342
  39.6761775  69.2570591  26.8640804  40.2547550  69.1514349  26.1088848
  38.7952900  69.1356945  26.5097594 100.9186935  63.1844139  58.6554718
 101.4104366  62.5414324  59.1663456 101.1099339  62.9630852  57.7440596
  26.5537047  45.1701164  40.5228472  26.1898208  44.2997885  40.3605127
  26.0732818  45.4921389  41.2855530  28.8555050 100.0339985  41.0317373
  28.3435822  99.3644524  40.5779934  28.2008529 100.5965996  41.4454222
  17.0094299  86.6017628  25.6389427  17.4335635  86.1410713  24.9149895
  17.6984859  86.7015457  26.2958121 102.3566246  70.9490061  33.3436537
 101.7803001  70.6381941  32.6454592 101.7670345  71.3607025  33.9754176
  36.5084624  44.2305088  58.4090137  36.6791725  44.7941637  57.6544380
  35.9960175  44.7768164  59.0049887  29.0247512  95.5034351  66.2145758
  28.8640428  96.2448502  66.7982674  29.8142624  95.0902081  66.5640640
  13.0264401  67.1151352  44.5087481  13.1425405  66.6088247  43.7047577
  12.0920312  67.0439482  44.7037983  25.1006770  41.3976192  25.8822131
  24.3935990  42.0425415  25.9007931  24.8568678  40.7950735  25.1795554
 112.1518040  72.6298952  56.1827612 111.8047237  71.8079615  56.5294600
 111.7846775  73.3047104  56.7537975   0.8641840  49.0602875  18.6076880
   0.4569995  48.9454985  17.7490520   1.7924625  48.8806391  18.4585011
 110.2619934  59.1872644  42.8603649 109.5057774  59.7556257  43.0064058
 110.1758289  58.4996033  43.5206175   1.0729912  67.8927326  53.9159107
   1.9448438  67.7144766  54.2685127   1.2058614  68.6154985  53.3025694
   1.5865695  30.2183223  42.0815468   1.7505446  31.0986733  42.4196720
   2.0805500  29.6419406  42.6646423   5.7726854  74.8918486  66.6928911
   6.3941360  75.6018829  66.8537760   5.8598858  74.7044134  65.7582808
  89.3759346  54.2015409  58.1947899  89.9250221  53.6886120  57.6018000
  88.8130283  53.5544920  58.6198711  21.5711999  45.7762957  43.9554548
  22.4239135  45.9114456  44.3687916  21.0148716  45.4405165  44.6582937
  28.9262629  59.0144730  81.5237904  28.7615228  58.8198328  82.4464035
  29.8797584  59.0644646  81.4560986  58.8971901  87.4577045  66.1132431
  59.7136307  87.6780796  66.5616798  58.3555603  87.0495224  66.7887115
  17.8278911  24.5432425  55.1087999  18.3009231  23.7253928  55.2624083
  17.0761609  24.2883062  54.5738792  94.3533897  44.4251776  15.0197947
  93.7599277  44.4901180  14.2715883  94.6457863  45.3237772  15.1722848
  97.6968002  42.9276323  54.3954563  97.1615982  42.6593924  53.6485672
  98.5163879  42.4448538  54.2885017 113.6014271  44.5009804  49.3781376
 114.4166279  44.6323586  49.8623037 113.1231880  45.3229952  49.4867897
  20.3511882  85.3539276  66.1441040  20.1712942  84.4253254  65.9972048
  21.0877657  85.5497265  65.5650139  90.9794903   4.8689446   0.2786483
  90.2410698   4.3048808   0.0488563  91.5858078   4.2922845   0.7434779
  96.3369751  25.9780455  57.4991894  96.1160469  26.8945599  57.6647949
  97.0786476  25.8020687  58.0781412 113.3845520  90.9704590  71.9891834
 114.3136215  91.1505795  71.8456364 112.9908752  91.0348034  71.1190653
  24.8482513  84.9714279  91.5992069  24.4353843  85.1176643  90.7481003
  25.7459164  85.2841663  91.4868641  19.6325076  42.5630474  87.8233337
  18.6836708  42.4369001  87.8287983  19.7564530  43.4614611  88.1294727
  10.6861937  50.3925133  57.0177984   9.9412119  49.8105764  57.1680784
  10.8409154  50.3447819  56.0743904 103.8603497  49.7015572  25.9341192
 103.3928299  49.5268822  25.1173282 104.4328213  48.9431143  26.0493279
   0.5536677  39.0437651  40.7934141   0.8096735  39.8455381  41.2493229
   0.0863798  39.3491697  40.0158501  24.0297604  64.8828125  36.2700009
  24.6329570  65.6186390  36.3746047  24.3659377  64.4032955  35.5128479
  32.0084262  68.8521051  69.1866589  31.7937660  69.7524214  69.4307423
  32.7275586  68.6106539  69.7704268   8.1082946  57.3410892  68.3651257
   8.4803170  57.2805643  69.2449951   7.8445530  58.2572031  68.2790947
  26.6150928  82.4049187  36.9944072  25.7942128  82.2581005  36.5244770
  26.5054679  83.2621574  37.4059415  87.5109196  89.1666031  38.5969901
  87.1417999  88.6631012  37.8714061  86.7508221  89.4362259  39.1125321
  19.7222078  58.5280466  62.0267296  19.2207694  59.3425322  61.9892979
  20.1851726  58.4931183  61.1896658  26.1556816  34.3236566  54.5750618
  26.0421324  34.9234486  55.3123474  26.5552044  34.8594069  53.8897991
   6.1332858  33.9720583  78.3864212   5.8619297  33.5482168  77.5721979
   6.3682449  34.8626995  78.1260633  98.2245255  65.9877062  34.7908068
  97.5493908  66.6402864  34.9767184  98.8964272  66.4690590  34.3080235
 105.7062054  80.8181477  58.2930660 106.2304783  81.6026115  58.4542704
 106.0510063  80.1693821  58.9066267  19.1793585  52.8766632  66.1174917
  19.3668640  53.1558323  65.2213144  19.0526772  51.9301462  66.0519600
  53.9008904   2.3250550  54.3559408  54.2598534   3.1780457  54.1114330
  54.3231726   2.1175152  55.1895142  27.1893001  88.2844353  89.0597343
  26.5050054  88.2268906  88.3929062  27.5253057  89.1773129  88.9816952
 103.3329296  65.6847525  46.3402653 104.1857338  66.1129332  46.2653494
 102.8424549  66.2333202  46.9524240  34.3017101  23.1292844  42.7270126
  34.0473390  23.8516212  42.1527672  33.6923385  22.4240279  42.5090504
 101.3375759  50.8401489  68.9693689 101.1940098  49.9135590  68.7768793
 100.4715729  51.2391853  68.8854694  11.7996621  78.8958502  53.1637144
  12.3787344  78.2542944  52.7522373  12.1600139  79.0148449  54.0424728
  11.5218568  46.9728231  47.0654774  11.4026797  47.8943014  46.8354702
  12.0956886  46.6275358  46.3815737  35.0285268  49.9597120  56.6217327
  34.3970108  50.0581264  55.9091759  35.1888132  50.8533859  56.9248486
   8.9769006  88.5423660  84.5243740   8.7842828  89.4274712  84.8337555
   8.2548267  88.3333302  83.9317989  12.3395658  56.1813211  74.2387247
  12.1894372  55.2586603  74.0328360  11.8215954  56.6587019  73.5906172
   0.7875959  58.2257128  35.0134087  -0.0941011  57.9146051  34.8083425
   0.9360880  58.9457941  34.4004917  22.4179864   1.9095865  75.4880619
  23.3200955   2.1122655  75.2403784  21.9064426   2.6460934  75.1532316
  12.5596356  34.9388742  28.5058641  12.3993623  33.9961481  28.5484099
  12.2310984  35.1990819  27.6452923   1.0662913  63.8233280  60.7541132
   1.4998627  64.6261787  61.0433912   0.4472842  64.1134644  60.0841236
   9.6882266  77.5667477  14.7720587  10.5380201  78.0052996  14.8139703
   9.5166188  77.2904730  15.6723106  36.0384250  77.0521879  35.3543591
  36.8411207  76.6514063  35.6879497  35.3838158  76.8755388  36.0300159
  63.6923409   8.6522090   7.2635788  63.4450102   9.0442735   8.1010413
  62.9680490   8.0634165   7.0515591  27.8206491  33.2538366  82.8815651
  28.1177163  34.0798759  83.2632065  27.2098017  33.5144496  82.1922398
  36.0644126  69.1075039  46.9367504  36.8862057  69.5822430  46.8122053
  35.3910732  69.7877693  46.9276476  18.0895197  68.7612581  44.1272354
  18.6303973  67.9715538  44.1202354  17.2499490  68.4733629  44.4856596
  63.8998556  86.1193275  62.0960855  62.9670954  86.0091209  61.9115782
  64.1077089  86.9933605  61.7657995  45.0376368  93.2243729  69.1945124
  45.1913786  92.2826862  69.1181898  44.6053839  93.4637070  68.3746862
 101.3411427  46.2755775  27.7234387 101.3149548  47.2253752  27.8393340
 101.3695908  45.9262943  28.6141825  16.2777972  19.6538055  49.8076820
  16.4912152  19.7621167  48.8808823  15.4591167  20.1362109  49.9229050
  34.0257692  71.3874817  34.3657279  33.9144516  72.0192575  35.0761485
  34.3537188  71.9074297  33.6320138  96.8918133  62.0352554  82.2302151
  97.4234009  61.5725374  81.5824890  96.4874554  62.7515125  81.7406273
  25.5723834  54.0108299  90.3061867  26.1286068  54.6730375  89.8959064
  26.0469604  53.7562943  91.0975266   5.9839147  63.3993340  66.2919283
   5.4544497  64.1730738  66.4848566   5.3447163  62.7015162  66.1480141
  30.4367065  73.3078337  48.9787865  30.0888968  74.1394520  48.6568117
  31.3868308  73.4226418  48.9610052  17.5394619  64.3999577  75.3952169
  17.3230493  63.7824345  76.0938358  16.7306936  64.4831276  74.8900366
  13.3169615  63.3334684  41.4091635  13.5145223  63.5230970  40.4919720
  12.6944137  62.6071835  41.3748693 110.9001064  65.7031584  50.6471920
 110.0170135  65.3361607  50.6059933 111.2125206  65.4777193  51.5234375
 107.7788925  42.2832489  30.4814744 108.0972385  42.9530191  29.8762465
 106.8323898  42.4217415  30.5156755   0.0314589  54.5309162  18.3583903
   0.8804228  54.1973543  18.6486161   0.1126225  55.4823685  18.4245479
  32.5392008  30.7643247  85.2362442  31.9268465  30.1027918  84.9143219
  32.4433565  30.7363439  86.1882210  18.7484539  66.7566109  71.3162279
  19.0732169  66.0756111  70.7271576  19.2304873  66.6179419  72.1314859
  29.3462014  60.0068331  35.5611873  28.7891126  59.7048759  36.2786174
  29.6377969  59.2035580  35.1299667  41.3440895  51.5644789  45.0927830
  42.1979904  51.6173458  44.6634960  40.8762360  52.3435688  44.7921658
 105.8573246  55.7210112  28.7033987 105.6466770  56.4469385  29.2906713
 105.6870556  56.0651350  27.8265738  32.4009252  73.9930058  55.5880547
  33.0864739  74.4978571  55.1505852  31.9902229  73.4882832  54.8860502
  28.1790543  58.4376717  41.5929890  28.9343691  58.0408049  41.1591387
  28.0799818  57.9397202  42.4044466   8.9130878  89.0673351  35.4233313
   8.6759168  89.8481941  34.9230909   9.1087627  88.4071827  34.7583938
  11.8660939 106.8657398  63.1610870  12.7689838 106.7367554  63.4515762
  11.5667307 107.6358795  63.6443043   5.1485789  67.4337626  68.4386683
   4.5432594  66.8311548  68.0065966   5.9767574  67.3158884  67.9734182
  21.4687967  61.3437033  60.1655054  21.8035364  62.2077942  60.4053402
  22.2431946  60.7811689  60.1554823  39.2051578  72.6160002  32.0644498
  38.9530134  71.7562199  32.4012470  39.1601992  73.1941509  32.8259969
   8.2284451  56.2251949  45.4760122   7.7338582  55.8542395  46.2067747
   8.5174513  57.0811224  45.7923841 113.5355091  64.3828297  29.0093279
 112.6216030  64.4837475  29.2754507 113.8935566  63.7397480  29.6212840
  23.3392119  59.3797827  60.3127432  24.2870402  59.3350458  60.4386616
  22.9875755  58.7122154  60.9017611   2.9277372  55.1063299  70.1445055
   2.0195204  55.1240253  70.4462671   3.3602077  54.4783831  70.7231998
  14.8637247  63.0864048  39.0824604  14.9252129  62.1954727  39.4269681
  15.7468891  63.4424067  39.1800165  46.6352224  75.5294704  55.9859133
  46.7700100  75.8964729  56.8596268  47.4526930  75.7096958  55.5217028
  21.6159821  59.3723774  78.1622934  21.9214368  60.0392246  78.7773132
  22.3700380  58.7954855  78.0405235 109.9346161  69.1912556  43.3768559
 110.2275848  68.5762739  44.0493107 110.4150867  68.9329004  42.5903225
  44.5456934  71.0297489  46.4187145  43.6065006  71.1697388  46.2980986
  44.9308109  71.9018412  46.3328218   6.9355822  98.4886456  10.5867660
   6.6310179  99.3187904  10.2202547   6.1341482  97.9941082  10.7581496
  25.5609655  52.0944262  43.0387640  25.4762530  51.4830446  42.3071432
  24.8760724  51.8295574  43.6527634 105.7388687  46.7190552  49.6499443
 104.9084568  47.1951056  49.6540928 106.3670063  47.3364353  49.2750788
 104.9749374  56.7128420  75.1585531 104.1414642  56.6925287  75.6288099
 105.1930332  55.7915115  75.0177860   4.1424379  48.9978504  58.0243111
   4.4907963  48.5419989  58.7905169   3.3854449  49.4804621  58.3563900
  40.1315308  88.0588436  34.8948169  39.8402309  88.5501385  34.1266990
  40.3287840  88.7302494  35.5479193  47.8813839  75.7671261  27.8148389
  48.4157801  76.5319490  27.6010680  46.9873333  76.0314226  27.5979137
   8.6566174  85.6317806  25.6752586   9.4055706  85.4458714  26.2415981
   8.3714986  86.5078163  25.9350729 113.5957909  57.0200443  58.1654453
 112.7610207  56.6410828  57.8901577 114.2288399  56.3105822  58.0552626
   7.2997016  27.4477458  46.0707426   7.3084491  28.3313942  45.7028770
   6.7137069  26.9549537  45.4962873  22.1562052  89.4706917  47.0348072
  21.6889167  89.5656109  47.8647852  22.9900312  89.9188042  47.1767902
  75.7767105  84.5986176  45.1576996  75.6265783  85.1781368  44.4108057
  76.5485620  84.9621964  45.5916119  23.8589215  57.7425766  77.1365786
  24.6027136  57.7929592  76.5361881  24.2088819  57.3104906  77.9157162
  16.7354131  39.9634647  58.8824797  15.8887827  39.6370602  59.1872883
  16.9843435  40.6239462  59.5290279 104.2064190  62.2485733  34.9078846
 104.2168713  61.3060474  34.7412276 103.3476639  62.5369596  34.5986867
  27.7699161  62.5571251  65.5059433  27.6074958  63.4634399  65.2443314
  28.1907320  62.1595430  64.7436619   8.3671099  52.3162699  43.4467888
   7.4634528  52.3525524  43.7603474   8.5264051  53.1835413  43.0743647
 113.3372820  21.9020605  45.4948282 114.0296262  22.4053836  45.9232664
 113.4759071  22.0519209  44.5596504 112.9209423  54.7658110  69.6244478
 113.4066677  55.4763985  70.0432253 112.2200203  55.2057695  69.1434431
   5.0537324  68.3351278  33.7752151   4.2932782  68.9055157  33.6629772
   5.6095105  68.5254574  33.0194926  76.3529587   4.5677021  91.4386559
  76.6223907   3.6572543  91.3173199  76.9758224   5.0734127  90.9166050
   3.6487296  69.5557642  61.2506533   2.9820371  69.2901993  61.8840790
   4.3536815  68.9181376  61.3633633  98.8371849  80.1896477  63.0490828
  98.6595821  79.6957922  63.8495779  98.9010715  79.5227480  62.3654175
 105.1427269  40.4218006  44.7580051 105.1660347  39.4805670  44.5854664
 105.9566212  40.7548285  44.3799925 110.1580811  48.6790991  46.4735794
 110.3527832  48.0919075  45.7431459 109.3772602  49.1574430  46.1947823
  45.6475639  -0.1429890  71.4256525  44.9310541   0.1364680  71.9955206
  46.4401865   0.1433399  71.8795204  21.2794638  42.7564812  35.8854842
  20.6247163  42.4132776  35.2774119  21.6360068  41.9799519  36.3168859
   0.3261394  32.2816038  66.5707922   0.3544618  32.4758530  65.6339359
  -0.6041633  32.3130631  66.7939043  16.8990982  59.6569967  81.8432713
  16.0918736  59.8641920  81.3724232  17.0469129  60.4141378  82.4099445
   0.7549628  80.6839180  82.5180340   0.9117521  81.4394665  81.9516373
   1.4357691  80.7417488  83.1884003  30.4208088  82.6867390  39.3632174
  29.8354316  82.0447731  39.7650290  31.2919235  82.4477100  39.6798468
  23.9049315  56.6470575  39.1057062  23.2513809  57.2170353  39.5109606
  24.5039892  56.4249516  39.8184681  48.5971928  19.4523871  56.9317102
  48.8692427  20.2069473  56.4093494  47.6405907  19.4804442  56.9129229
  22.7349210  30.5407858  45.7234955  23.5604525  30.9786010  45.9309673
  22.7568793  29.7327709  46.2361956  16.8199480  82.0903111  56.2208414
  15.9476531  82.4397659  56.0385847  16.8790114  81.3009739  55.6826162
  24.0528798  75.8561993  55.9568453  24.6629333  76.2732124  55.3484297
  23.7228560  76.5752649  56.4956045 109.3365383  39.1688538  60.8106661
 109.3815899  38.2926059  60.4280567 108.6568928  39.1026568  61.4814425
   6.8467587  80.1753426  76.6312170   7.3631918  79.4039154  76.3979006
   6.9643939  80.7742882  75.8938837  12.2011125  49.4761658  35.5175829
  12.1688938  50.3370571  35.1003814  12.6026213  48.9067936  34.8611999
  18.5170460  78.5519123  59.1428089  18.8765538  79.3115759  58.6846638
  19.1360021  78.3860350  59.8538733   2.9138628  70.2970743  33.5833335
   2.2148027  69.8200560  33.1361175   2.4677052  71.0236359  34.0184045
 102.0049381  27.7914572  61.7963409 101.1530685  28.0641460  62.1372175
 102.5659943  28.5582399  61.9124937  94.8602200  55.5567312  74.0846395
  94.3574810  55.5792904  73.2704115  95.2397060  56.4325762  74.1561699
  35.2712679  90.8455658  36.8285704  35.0780559  90.7405949  37.7601695
  36.2256432  90.7954979  36.7747688  36.9305563  81.1886311  67.6922798
  36.7877579  80.3279877  67.2984028  36.8184423  81.0436535  68.6317730
  16.0056436  41.6726351  39.4726896  15.6504941  42.4992752  39.1459465
  15.4679847  40.9994411  39.0555978 103.9100933  71.8090439  40.0518036
 103.9441013  72.7484035  39.8710275 103.2997131  71.7281199  40.7846880
  15.5154061  84.0376949  26.8235517  15.4152465  83.4391499  26.0833240
  15.4666793  84.9106693  26.4339709  33.1982732  60.0171185  69.8563480
  32.4105740  59.7833633  70.3473854  33.3710241  60.9266472  70.0995588
  19.5764005  58.2593203  25.5601382  20.2802801  58.7984896  25.1994681
  19.2824543  57.7245378  24.8226833  12.9992747  93.8149738  36.3790560
  12.2322500  93.3111000  36.6511083  13.0972242  94.4857407  37.0548606
   8.0474460  98.4572983  31.5507841   8.5049051  99.2945480  31.6280913
   7.7332032  98.2734299  32.4360371  18.8738441  84.9627686  24.1383719
  19.7556448  84.5933628  24.1852164  18.8824892  85.5039024  23.3488584
  48.7375402  25.8743382  46.9140196  48.2285929  25.5940914  47.6747227
  49.4469213  26.4015722  47.2814846  41.9130230  85.8051205  23.9913845
  41.4055824  86.6074467  23.8688493  42.7971220  86.1097622  24.1958261
 107.8528976  47.8103542  47.8982449 108.4136868  48.0034065  47.1469259
 107.8505230  46.8549109  47.9561090  92.1612549  99.6687317  54.7088385
  92.8174591 100.2523994  54.3281031  91.9762802 100.0451660  55.5692530
  49.7062874  85.7328987  33.4276342  49.6233082  86.2443352  34.2324829
  49.2277622  84.9236774  33.6076570  18.4457290  89.6418285  58.3550644
  17.6605320  89.5805645  57.8110552  18.4631979  90.5527115  58.6487007
 110.3393555  77.4978638  29.0080595 111.1932278  77.1984816  29.3203235
 110.5445194  78.1393290  28.3278704   6.5581053  70.9503508  29.1032314
   6.4197290  70.2029705  28.5214162   5.8370978  70.9019327  29.7309542
 109.7304821  48.7234211  36.8098259 110.5371761  48.2123518  36.7443109
 109.0328503  48.0683184  36.8294907  42.6756525  48.1855202  81.5031910
  42.3671532  48.8814497  80.9228992  42.9262638  48.6385202  82.3083115
  18.6980677  43.9465141  40.7230091  18.7398565  43.5513067  39.8522067
  18.0902088  44.6793413  40.6245232  39.9356222  84.3912315  18.7515414
  40.0324535  84.0122890  17.8778934  40.3088427  85.2692986  18.6744654
  46.7702770  95.2582455  69.4351149  46.2209368  94.5494175  69.1004181
  46.7786598  95.9073448  68.7316704  73.2469082  14.5912135   0.9065808
  73.3221579  14.5623982   1.8603835  72.5291109  15.2025092   0.7413121
  32.8626943  74.8082924  43.3885384  32.7527142  75.0925779  42.4811697
  32.3307800  75.4201603  43.8973761   5.4404134  62.5201797  18.0082846
   5.6347233  62.3879385  17.0803905   6.2534785  62.2907782  18.4583187
 101.7255497  16.3430595   5.8143288 101.4917564  17.0893478   6.3662601
 102.1935654  15.7487309   6.4008129  20.1243043  39.9417114  92.3216629
  20.2436328  39.7871161  91.3846016  20.2217364  40.8885813  92.4225140
  97.6462650  73.1608152  51.0578156  97.3800945  72.2480726  50.9469795
  98.0454159  73.3972645  50.2205563 112.7841377  75.1380301  31.3517261
 112.1391869  74.5315361  31.7156529 113.1439304  75.5910301  32.1143317
   0.0518525  65.5876303  52.9511309   0.2334872  66.4838171  53.2341242
   0.7523853  65.0661135  53.3429289  27.3595834  52.8004408  30.9363890
  28.0155230  52.1071291  31.0091686  27.4347734  53.1074047  30.0328660
   3.7017897  92.7790260  79.9868488   4.5922035  93.0035782  80.2569866
   3.6277542  93.1226826  79.0965366  11.9069779  63.8724852  80.9484959
  11.5027797  64.3740034  81.6565418  11.2531674  63.2120132  80.7192898
  10.2408028  43.5424662  89.0497875   9.4197440  44.0253401  88.9552879
  10.0098813  42.7784204  89.5781231  11.1885297  72.4007654  66.3095188
  10.5547643  72.9660988  66.7510700  10.9231973  72.4160099  65.3899527
  20.1745248  84.1067314  73.6591387  19.9008060  84.2554092  74.5642424
  20.7810187  83.3679867  73.7106037   8.4687167  83.8760471  84.7577381
   9.1709197  84.5263481  84.7738934   8.3687252  83.6544704  83.8319206
   6.6572964  60.6315136  83.6479378   7.0454174  61.1935139  82.9773045
   5.7972759  60.3994465  83.2975864  39.6877909  67.5280809  34.5017171
  39.7308540  66.5732336  34.5531559  40.5708838  67.7942181  34.2456937
   4.1766489  87.0023346   5.7056910   4.0383187  87.3254108   6.5960377
   3.7002409  87.6193905   5.1502645  42.3890448  93.1324577  65.2177334
  42.5085497  92.2283936  65.5086231  43.2235622  93.5589886  65.4123831
   0.4298639  77.6295662  68.5073376   1.1488485  77.0095921  68.6294556
  -0.3316260  77.0798445  68.3224726  21.6931963  64.1841602  77.1294880
  21.4436889  64.1926003  78.0535603  22.4796844  64.7282314  77.0887804
  20.1535177  87.1313477  47.4436903  20.2879000  88.0094719  47.0872259
  20.7000327  87.1054649  48.2291126  19.8998654  56.4216566  50.2162886
  20.6003976  56.9633865  50.5796242  20.2781224  55.5438757  50.1647711
 107.1577549  78.3925009  57.0383263 107.8927517  78.7804365  56.5634537
 106.6037560  79.1372728  57.2720718  10.2056026  72.5155067   4.1750708
   9.3566394  72.6793289   3.7643930  10.5797780  71.7926025   3.6714467
  44.9755144  73.4355974  55.2188492  45.6456614  74.1133833  55.3068113
  45.0330210  72.9348803  56.0326099 109.6859455  77.3155260  59.0645552
 109.9980259  78.0535507  58.5409594 109.6704578  76.5783739  58.4541416
  76.9725037  88.5376263  12.5008571  77.2379351  89.2296124  13.1066060
  76.2090540  88.1360245  12.9156923  31.8858647  74.1141129  63.5546684
  32.2808599  73.2605743  63.7326622  30.9571409  73.9942884  63.7530279
  36.4858961  91.7699623  71.6944170  36.7302060  91.9792843  70.7928991
  35.6488276  91.3124180  71.6156387   7.7113223  94.5874596  74.8466539
   8.0724245  94.4648838  75.7246113   8.0912179  93.8768005  74.3300533
  45.1117468  50.1511335  80.8930779  44.4160557  50.7755327  81.0988998
  45.1365089  50.1268768  79.9365044  29.9495792  53.9334154  72.8142786
  29.9107552  53.0369520  73.1475639  30.2311540  54.4561005  73.5651064
  24.2484117  95.5523682  41.8243456  24.4494176  95.0938511  41.0085106
  23.5024571  96.1115456  41.6073036  21.5752840  60.4256058  26.5194821
  21.9191480  59.5325994  26.4964557  21.8482375  60.8089304  25.6859422
  45.0071192  56.8382215  85.4571247  44.1899729  56.4095306  85.7115364
  45.0006199  57.6682758  85.9337807 111.6447830  93.0499840  48.5877514
 112.3804665  93.5208130  48.9793110 110.8814049  93.5934544  48.7830400
   3.3588314  96.3424206  58.5921335   3.7966096  96.2109566  57.7511215
   3.4143859  95.4913521  59.0266848  38.3299279  62.0540380  27.0676899
  38.2981706  61.8565512  26.1316228  39.2373657  61.8809462  27.3183393
  36.8107963  65.8825541  32.2582054  36.4173102  66.7467165  32.3791289
  37.5912857  65.8951187  32.8122020  41.3072157  66.0308361  73.5771561
  41.8529558  66.5993500  74.1204739  41.5363359  66.2667370  72.6782179
 107.0771980  92.7855968  88.2830715 107.4376869  92.6249027  87.4110222
 107.5185585  93.5806656  88.5819149  12.6185691  67.3590899  39.5889020
  13.2644308  66.8259144  39.1254210  12.0834613  67.7441502  38.8949132
  73.5050249  93.3982754  10.9719753  72.7899647  93.4086037  10.3357255
  73.2428503  92.7407360  11.6162884  23.0675125  47.6380920  76.3883877
  22.5243735  47.0857906  75.8260727  23.4734678  47.0274973  77.0036983
  44.7761536  73.4345818  62.5971413  44.1956377  73.8853073  61.9838858
  44.8205566  72.5365210  62.2688961  86.0255337   6.2900478  24.6324086
  86.2602901   7.1366739  25.0123334  86.2073803   5.6571013  25.3270578
  23.2761192  47.0006847  52.1374607  22.5640941  47.0922375  52.7706051
  23.9550400  47.5973320  52.4525976  24.2671037  88.8288021  35.4340506
  23.3221006  88.9425468  35.3327417  24.3720317  88.4697437  36.3151312
  64.1047287 100.3635216  32.2501254  64.6802473 100.2411938  31.4951134
  64.4741249 101.1151791  32.7135706  13.4054279  67.1655846  51.3791227
  12.7499115  66.6324711  51.8289232  14.2325664  66.9358206  51.8025446
  35.3640270  70.2467918  61.8363762  35.9886098  69.7478628  61.3098860
  34.5117450  70.0491095  61.4480877  31.9408965  53.3869648  71.2588263
  31.1861348  53.7484550  71.7234659  31.5647864  52.7550268  70.6461048
  18.8837433  81.3566017  52.6780176  19.7248769  81.3273335  52.2220898
  19.0875709  81.7367935  53.5325003   2.4143058  69.7738075  67.6800966
   1.9496714  69.5433140  68.4845924   3.3057836  69.4538164  67.8183126
  36.0842299 101.9789219  14.9848068  36.6164517 102.3996925  14.3095851
  35.9294558 102.6675034  15.6314397  17.5898612  89.9595261   3.3887982
  16.7635298  90.3819084   3.6233282  17.5762844  89.1275120   3.8618624
   6.4351934  73.9713478  53.1234789   5.9571922  73.7694168  52.3191309
   5.9247077  73.5531807  53.8168526  37.2714305  54.9122953  67.4982405
  38.1108069  54.9673653  67.9550123  36.9554925  55.8153439  67.4680233
  28.6763430  84.1158867  66.0786247  28.6385989  83.1669331  65.9590292
  27.9268694  84.3166447  66.6391754   7.4798560  86.2956429  53.6228895
   8.3980179  86.2570381  53.3550835   7.0976132  85.4856396  53.2852268
  19.7288346  75.4447603  48.2937765  20.6096101  75.1149082  48.4717226
  19.2535460  74.6869278  47.9531574  32.7929187  97.9086781  64.4037247
  32.5730872  98.6197281  63.8017988  33.6826825  97.6542664  64.1591167
  44.7522879  95.7518482  49.3773031  45.2761793  95.8690643  50.1697826
  44.1453695  96.4920425  49.3797445  35.6124258  76.7628860  41.4345264
  34.9082351  76.3332605  40.9489632  35.2838206  77.6462412  41.6016531
   6.3183618  80.3611088  44.5190191   6.1684746  80.8748150  43.7253761
   6.7654544  79.5720959  44.2127466  56.9736814  58.1081486  63.7853146
  56.0888147  58.4689522  63.8406515  57.2339678  58.2506418  62.8752708
   2.5636849  53.7943506  66.5550089   2.3575598  53.2260513  65.8128643
   2.0261556  53.4569645  67.2715759  53.6145973   2.3844424  64.4383907
  52.8853655   1.9777739  64.9064398  53.7830925   3.1963688  64.9165297
  26.4379072  78.5482311  64.4593763  27.3547864  78.3541298  64.2647314
  26.4353108  79.4742918  64.7015285 112.6054859  82.7616501  83.0917740
 113.0702686  81.9499683  82.8883266 111.8713379  82.4861336  83.6407185
  14.3578160  88.9489365  67.8605318  13.4165633  88.8446236  67.9997921
  14.7000408  88.0550098  67.8577423  37.6418900  75.1525068  48.5799980
  37.9391050  76.0397768  48.7816048  37.2007990  74.8606014  49.3777847
  43.9854193  42.7575397  51.6850328  43.3608770  42.3954296  51.0564947
  44.8108482  42.3167276  51.4835596  33.8532066  74.4651222  69.5187998
  34.0673852  75.0450611  68.7880230  33.7292242  75.0537825  70.2633381
  27.2287726  56.8678617  53.1316376  26.7334247  57.2931337  53.8316441
  27.2997665  57.5350952  52.4490023 111.3791656  95.1828957  56.8481874
 111.9280624  94.4677162  56.5265226 111.8283272  95.4948425  57.6337957
   5.5606574  62.7396154  57.4111700   5.3485262  61.8794537  57.7735901
   4.7265962  63.2092285  57.4049616  30.3595710 105.2574253  47.9248047
  30.2954698 105.6831741  48.7797070  30.2539563 105.9696102  47.2940397
   3.7476349  56.8745804  45.5314875   4.1705522  57.6422548  45.9162617
   2.8525782  56.8994379  45.8698463  55.1693296   1.8550459  71.7209816
  56.0552073   1.9318314  72.0753193  55.0956726   2.5805223  71.1009073
  17.9663551  91.6358757  43.8127184  18.7628949  92.1160126  43.5863829
  17.2972143  91.9933224  43.2290125  39.1018677  63.6011028  51.3311052
  39.1551113  63.6598063  52.2850180  39.9777007  63.8394260  51.0272121
  83.2081223  42.8525639  57.5029516  83.0864906  43.7089872  57.0931053
  84.1566086  42.7646637  57.5971794  37.2842407  92.4247074  55.9094334
  36.6976404  92.9810810  56.4218664  37.9315948  93.0293179  55.5466413
 107.7367687  78.2741165  17.3080349 107.2438240  78.7399435  17.9834974
 107.2524261  77.4589014  17.1773648   7.4547386  84.2136288   4.1458067
   6.5705281  83.8985634   3.9583477   7.3745835  85.1674652   4.1437694
  23.8006663  97.4838257  78.2289982  23.3381009  97.9284573  78.9393234
  24.5452452  97.0603466  78.6561966  85.7839298  12.3157752  40.3958607
  85.0754929  12.4434054  39.7649455  85.4547691  11.6439128  40.9929276
  29.0020847  25.9006190  68.8204336  28.7419295  26.2939882  69.6533871
  29.6082997  25.2013159  69.0647840  99.4480896  95.3805351  53.6527061
  99.9419117  94.6127510  53.3648252  99.5825958  96.0258770  52.9586792
  21.1682558  80.9631824  84.8238277  21.2367368  81.2071037  85.7468891
  20.2274060  80.9529591  84.6479607  45.9752750  52.2236204  56.1604309
  46.6349888  51.5500498  55.9951735  45.1401758  51.7586374  56.1091995
  75.5656910  12.5116169  50.0370216  74.6230078  12.5867152  49.8889017
  75.9220600  13.3494258  49.7415400  19.1370559  74.2663145  28.5302901
  19.4339609  73.6781311  29.2246366  18.9725661  75.0978947  28.9748764
   4.4563270  70.5514383  81.7890358   4.8174551  69.8562908  82.3391151
   3.7698227  70.9486485  82.3249149  31.5761566  37.7817965  84.4048119
  31.9299603  38.0477118  83.5560799  31.4876509  36.8308973  84.3401146
  35.7558870  67.0146322  63.0185223  35.8841991  66.5691853  63.8559866
  35.2614975  67.8037167  63.2402277  51.3283777  69.6151876  66.2734175
  52.2276163  69.2898989  66.3157034  50.8187914  68.8699245  65.9554052
  40.0238037  83.5603714  84.7972965  39.9844217  83.5983086  83.8416576
  40.9368134  83.7566280  85.0073624  52.7867079  94.4496059  72.2489119
  52.3109007  94.1860485  71.4612675  52.9098749  93.6359596  72.7378321
 101.3873005  78.7754297  61.3378811 101.4170551  78.1610584  62.0712948
 101.1555386  78.2353973  60.5823135  31.5125108  78.7191963  63.5597992
  32.3341942  78.2706165  63.7594128  31.7272758  79.2982531  62.8285027
  30.3063583 101.6922951  30.1485419  30.4557085 102.2896957  30.8813643
  29.4991875 102.0083332  29.7425556  41.2051392  98.8727760   9.2214876
  41.1970854  99.2507744  10.1008546  40.5437756  99.3705082   8.7407678
 113.0751705  53.1778383  79.7350693 112.5511456  52.4666452  80.1036263
 113.9316559  53.0853510  80.1523399  38.3181429  70.2317810  61.0855246
  38.0765367  71.0005426  60.5689335  38.5354543  70.5823088  61.9493198
  36.1596894  44.5955563  48.6548424  35.8743644  44.8744583  49.5249224
  37.1156335  44.6212626  48.6965942  48.6161137  37.5265312  41.9188976
  48.4018135  36.8076301  41.3243484  49.1170168  37.1141148  42.6226282
 103.5690022  25.4310656  64.5156670 102.8281403  25.2370572  65.0898838
 103.7552547  26.3572574  64.6696472  33.2451296  58.2426357  11.0184026
  33.7701917  58.7233973  10.3785515  33.4709573  58.6390543  11.8598795
  19.5459569  31.8901277  68.5137606  19.6882665  31.0103846  68.8630915
  20.4178262  32.1893167  68.2557631  21.8929529  50.5100965  51.2114763
  21.2258363  50.4392147  51.8942404  22.4561715  51.2280512  51.5005398
  76.1121893  16.5519667  52.3516226  76.6234779  16.0289717  52.9691124
  75.9699488  17.3840547  52.8028727 105.3077698  83.9193630  32.3032808
 105.0922775  83.3952999  31.5318179 106.2440205  83.7730026  32.4383640
  47.1210051  63.4247637  54.1108131  46.8424225  62.7968264  53.4442425
  47.9031944  63.0317640  54.4980717  46.7119598  15.5811954  77.8298044
  46.0917950  15.6435394  78.5562563  46.2845469  15.0017905  77.1990585
 103.7186337  66.2906837  38.0682445 103.1142998  66.8420362  37.5712299
 103.3331203  66.2408161  38.9429569 106.3526726  50.1608849  63.8418722
 106.8715668  50.8967113  64.1667366 105.4522133  50.4855299  63.8390875
  19.4239223  61.4671230  21.7540932  18.8616168  60.7054663  21.6129446
  19.1364419  62.1019650  21.0979223   3.4873796  75.8953905  48.5320663
   4.4277889  75.9948254  48.3838272   3.1357446  76.7810965  48.4420156
  15.0210690  90.8144665  76.4455986  15.3338218  89.9314404  76.2489033
  15.4363680  91.3684177  75.7846212  19.2482972  53.2803488  35.2659416
  19.8290348  54.0361452  35.3539634  19.3195653  52.8245735  36.1046457
  35.4969358  74.8727989  74.9164867  36.1053061  75.5882359  74.7313786
  35.7356024  74.5766687  75.7948828  18.9718616  84.8628044  39.2886853
  19.2194843  84.5911694  40.1725006  19.0961373  84.0789509  38.7535596
  12.0316660  57.5365210  51.9635487  11.9031763  56.6295958  52.2414160
  12.8251672  57.5130272  51.4287281  48.7274408  81.1434650  35.0105143
  49.0268660  80.7485390  35.8294225  48.1275225  80.4971504  34.6382165
  32.6563120  33.7039089  46.6906166  31.8548489  33.2683039  46.9806814
  32.7844882  33.3967638  45.7931423   8.4841067  75.9758949  53.6043692
   8.1410044  76.7331505  53.1299448   7.7159637  75.4297209  53.7713528
  99.4059372  93.5320663  59.5783520  99.2148018  92.6992989  60.0098562
  98.6100197  94.0507317  59.6954679  44.5007944  67.6976442  53.8357258
  44.2459965  67.4067450  52.9601192  45.0212431  66.9748068  54.1862535
  13.4166288  55.5140448  45.5620813  12.8950942  56.3099575  45.4583502
  13.0675817  55.1001549  46.3514423  48.5326719  61.1049700  62.2310448
  48.6116552  60.7713747  61.3373423  47.8095388  60.6053829  62.6101494
  27.4351072  83.7657452   4.3418744  27.5241923  84.1039276   3.4508494
  27.1057487  84.5083618   4.8481050  37.1111965  51.1268806  62.1091795
  36.7499614  50.6645107  61.3529015  36.9191265  50.5559778  62.8530979
  23.3109903  77.6821852  65.5631208  23.6744618  77.7556849  64.6806717
  22.4628091  77.2565174  65.4381084  17.7016532  66.5527153  66.5229845
  18.5759759  66.1668444  66.5767908  17.1131814  65.8529854  66.8063831
  22.7361608  58.5028744  53.8176537  23.2382369  59.0826321  53.2449150
  23.3315349  58.3063698  54.5409441  29.4531894   8.4188527  71.2538528
  29.9420047   8.3355963  72.0726061  28.5641551   8.6445343  71.5275621
  35.6525898  73.5320139  77.4323130  34.9716592  74.1896248  77.5741529
  35.5191541  72.8940201  78.1333065  19.5278668  66.3874054  91.3290977
  18.8346219  67.0018959  91.0881710  20.3403664  66.8579674  91.1429596
   6.3334924  72.3862410  62.9628086   5.5156177  72.5172663  62.4830723
   6.0728103  71.9221926  63.7583828  40.9499311  70.5161810  36.0368896
  40.7992983  71.4178658  36.3206172  40.4072666  69.9872541  36.6216826
  64.5338202  95.5751133   9.8666459  64.6845722  94.8778439   9.2284268
  63.5813475  95.6611824   9.9068499  25.4825258  57.0303965  47.2775126
  25.4065728  56.1093855  47.5269079  24.9040031  57.1220207  46.5204477
  99.7708321  41.0519648  53.6801767  99.6558285  40.2538633  54.1959715
  99.6089077  40.7789469  52.7771425  31.7930055  40.0386143  54.5079565
  31.8597603  40.1645803  55.4544830  31.6010427  40.9107018  54.1632223
  22.0451140  66.9968748  33.1517434  21.7768621  66.9747782  34.0703201
  22.9153705  67.3952246  33.1658840 113.2333565  60.8634281  27.4932504
 112.5658798  61.3465500  27.9803967 113.3207607  60.0347233  27.9642487
  33.2823658  49.1820335  60.3746033  32.7090645  48.5364389  59.9613667
  32.7362871  49.9626875  60.4673910  22.2707987  87.0381451  73.6730957
  22.1682310  86.5986443  74.5172262  22.9380345  87.7061844  73.8303900
  82.0550919  11.0158265  10.3306472  81.6814137  11.6819537  10.9076011
  81.5161419  11.0537040   9.5404965  16.9082856  88.0312824  31.4658976
  16.5752685  88.6649895  32.1013021  16.9218147  88.5084820  30.6362438
  24.7366357  64.7891855  40.3139734  24.7933984  63.8901758  39.9902487
  24.4138837  64.7008848  41.2107849  49.5039797  95.5829906  51.2827396
  48.8451481  95.8252525  50.6319857  49.1000843  94.8709965  51.7788887
  38.3235431  87.6762390   3.6935782  38.2718849  88.5461140   4.0896708
  38.9837408  87.7648926   3.0061832  28.6686659  46.1342430  51.6841173
  27.9485583  45.5478382  51.9160795  28.9735317  46.4822865  52.5220633
   6.0802621  59.4669485  15.7590294   5.2841985  59.0927076  16.1364651
   5.9161776  60.4097939  15.7404017  32.6660633  88.2410145  53.8834953
  32.3716021  88.6462402  53.0678225  32.2503352  87.3788166  53.8863039
  16.8042886  59.2181873  24.7076941  16.9775569  60.0452185  25.1573920
  16.6717851  59.4662428  23.7927389  29.8240018  68.9410925  49.2435265
  29.5503163  68.0501556  49.4616032  30.7402802  68.9839077  49.5170784
  23.7268734  45.2352381  61.4267492  24.5694041  45.6145382  61.6767550
  23.4941173  44.6649075  62.1594000   1.5182917  60.1135826  37.1972632
   1.6885324  59.5515537  36.4413714   1.0643335  60.8736038  36.8332243
  13.0702543  83.3821201  72.1037388  12.8246903  84.1640568  72.5982141
  13.4613013  82.7998352  72.7550936 113.4110832  59.8359728  45.0522280
 112.9009914  60.4001856  44.4711065 112.7870178  59.1756105  45.3533840
  35.9292221  43.7308168  51.3527441  35.3340387  43.0024433  51.1753559
  36.7530465  43.3117723  51.6016340  47.7164745  19.0559077  36.4337707
  47.4424934  18.2799304  36.9226718  48.6169434  18.8670504  36.1697197
  39.4753122  44.0651035  57.3419189  39.5583701  45.0002337  57.1551991
  40.3621149  43.7868834  57.5708437  95.1948071  48.2771063   4.0272290
  94.8058605  47.4884510   3.6491117  94.8775482  48.9900446   3.4728867
  94.6406174   7.8897405   7.2081214  93.7637138   8.1589943   6.9346750
  94.5812988   6.9388521   7.3004496  11.2704384  47.6945686  41.7084265
  10.6255054  48.1802368  42.2226429  11.9521677  47.4608231  42.3383760
   2.2339793  76.5585423  51.6167593   1.4697008  76.3225985  51.0909796
   2.6038271  77.3216295  51.1727476 110.5703068  52.7337599  22.0313048
 110.7629395  51.8002224  22.1186495 111.4237309  53.1417322  21.8848062
  46.8017864  11.9266784  80.1485348  46.0155058  11.8628716  79.6063900
  47.1133804  11.0249043  80.2256298   7.6830018  38.2766557  29.9475074
   6.9504744  38.3099484  30.5627537   8.4376776  38.0390930  30.4862666
 113.1680202  56.9607019  10.4751468 112.8813362  57.3328114   9.6411365
 113.8825417  57.5309706  10.7588589  14.0883708  44.9942017  57.7059507
  14.2480803  44.0507174  57.7296495  14.8857665  45.3812504  58.0673122
  13.6215663  72.0592165  36.8890834  13.5271430  71.8654346  37.8216958
  13.8474488  72.9889059  36.8593025 112.6470089  81.1744881  72.4483109
 111.7425823  80.9315777  72.6464415 113.1353378  80.9449577  73.2389259
  27.6321077  72.0100355  65.0474501  26.8749428  72.3635674  64.5805979
  27.2781515  71.7081833  65.8840084  58.8277245  89.3539238  48.4876156
  58.9470959  89.9959469  47.7877712  58.7565804  88.5145569  48.0330372
  22.1364689  63.7193394  57.0816612  21.5154457  63.7679338  57.8084373
  21.5867901  63.6864614  56.2987185  18.8856566  66.5715408  82.2154045
  18.0522943  66.4008617  82.6542759  18.8460815  67.4980354  81.9781876
  24.2386079  98.0878639  39.5574379  24.2627764  99.0388012  39.4508266
  24.2442989  97.7463818  38.6632419  26.2606788  38.1021094  58.9214087
  27.0936608  38.1822729  58.4567070  26.2509274  37.2001362  59.2416859
  25.1988769  37.1908641  31.0040188  24.8597765  38.0570769  31.2296653
  26.1398792  37.2517395  31.1684513  12.9316759  90.2307510  50.8112288
  12.7101588  90.8604240  51.4972878  13.4026933  90.7459450  50.1562881
  47.6121712 101.3583374  91.0875988  47.4519444 101.4527988  90.1486397
  47.5973749 102.2542000  91.4244175  39.5278955  49.1158867  35.8774400
  38.5811520  49.1255665  36.0182095  39.9000120  49.3072844  36.7383289
   4.4028601  70.5642366  73.8798189   4.6153814  70.9534168  73.0315256
   4.4858348  69.6212101  73.7382269  18.2410443  81.8174839  78.5743189
  17.6546931  81.0730076  78.7091494  18.1984305  81.9886017  77.6335049
  24.1810656  36.4207220  48.6734009  24.4928765  37.0117950  47.9881001
  24.5260882  36.7921853  49.4853163  22.7841878  83.7720871  67.8531075
  21.9003892  83.4405899  67.6942205  23.1538486  83.8970757  66.9790602
  20.9905410  97.6630020  38.8628316  21.6971374  97.4471951  39.4714189
  21.3857484  98.2786846  38.2455921  20.4869914  92.8491688  61.4469004
  21.4436579  92.8335762  61.4189768  20.2421880  91.9773579  61.7571449
   8.6568296 103.5365963  33.5373712   9.5063210 103.8422680  33.8554287
   8.0604541 104.2653751  33.7090087  76.1069870  14.1107666  81.4059544
  76.4695358  14.4364429  80.5821133  75.6752825  13.2897615  81.1697102
  91.2871456   8.1644183  11.2101078  90.7894421   8.1079859  12.0257914
  91.9940567   8.7802911  11.4029860  99.7738743   2.0554954  66.3661957
  99.8580456   2.1592215  67.3140287  98.8885403   1.7140813  66.2402916
  43.5856438  77.0995903  60.6982708  44.4540787  76.9437695  61.0694504
  43.6751175  76.8676853  59.7739124  98.2111073  84.3561363  12.3014975
  98.4098148  84.6932316  13.1750584  98.4217644  83.4237099  12.3509514
  24.9072909  80.2320480  45.9488344  25.0061965  79.3524790  46.3132668
  24.4593477  80.0963783  45.1138687  16.8894553 104.5580006  38.6555290
  17.5369990 104.5438004  39.3603110  16.1819601 105.1083660  38.9913654
  43.9517498  76.5992117  46.4839029  43.5638523  75.7691574  46.2068033
  43.3906031  76.8988752  47.1991301  52.6401711  10.6011724  33.3401012
  53.5335922  10.8534360  33.5733247  52.2630310  10.2732742  34.1564822
  31.2517071  66.4028311  64.1961622  31.5563536  65.5262375  64.4306993
  31.4881682  66.9474316  64.9469805  57.5443935  75.6321049  60.7111120
  57.6747131  74.9762964  61.3960695  57.4510813  75.1224947  59.9062395
  51.3299799  72.1988058  67.1876240  51.1354351  71.2993860  66.9241285
  51.8708086  72.5447226  66.4776421  43.1116009  87.9365349  69.9548340
  43.6532259  87.1540833  69.8516750  42.6118612  87.7780342  70.7556868
  42.7329683  61.8608189  65.0520229  42.8865528  60.9507561  65.3058386
  43.4099865  62.0454264  64.4010258  34.7486115 106.0074997  80.7523727
  35.1568174 105.2761173  81.2157059  33.8297009 105.7536316  80.6664181
  32.4541998  73.5679722  59.4687557  31.7458797  73.0280066  59.8193979
  32.7162242  73.1248140  58.6617947  61.4451790 103.8952351  14.5161784
  62.1009493 103.3680153  14.0598428  61.8963671 104.7142887  14.7206664
  17.7686906  61.7336035  25.3182626  16.8725502  61.9969797  25.5275440
  18.0524278  62.3586464  24.6511459  35.0537038  91.3500214  52.2342968
  35.2832198  91.8770313  51.4689112  34.2191243  91.7116261  52.5325489
  44.7670889  45.8359766  32.0293522  44.5752764  45.9197092  31.0953140
  45.2759314  45.0281334  32.0978856  56.2963963  12.0293820  80.5327797
  55.3809929  11.8082523  80.7041645  56.5698624  12.5299025  81.3014889
  20.0987601  40.0835180  57.4735022  20.7917571  39.4455886  57.6438951
  20.1501751  40.2472258  56.5318108  41.8948507  77.4152184  62.6414728
  42.5142574  77.1798038  61.9507122  42.3421955  77.1804953  63.4544992
   1.6633296  87.7891159  59.0185642   1.1513625  87.0679665  58.6524153
   2.5434804  87.6619816  58.6644411   3.4501776  43.8535261  64.7926283
   3.2181382  44.5235777  65.4356050   3.9443332  43.2033587  65.2919483
  24.3618274 101.1619759  46.1221838  24.8048019 101.9696140  46.3824272
  23.6607862 101.4508820  45.5379629  35.5375409  96.1261177  51.7890358
  36.3617682  96.0101795  52.2617340  35.4922628  97.0660019  51.6135263
  54.4153595 103.4756565  52.2515535  54.3592072 103.4012508  51.2989044
  54.8695755 104.3049240  52.4006701  30.9464455  73.0709648  22.1694183
  31.1187649  72.4223328  22.8519297  31.4945817  72.7964878  21.4342690
  39.6569824  68.3614969  56.5250778  39.6864247  67.4526834  56.2260532
  40.1295280  68.8506794  55.8515549  33.8588500   7.6039737  66.5962887
  33.4637666   7.9601300  65.8004904  33.1865168   7.0281368  66.9604492
  57.4848366  14.6374345  56.6864491  58.2589006  14.2199588  56.3085985
  56.9742155  14.9248707  55.9295607  23.0858278  30.0988197  55.7205439
  22.9490232  29.3582201  56.3113308  22.4356031  30.7461286  55.9933710
  29.5127654  62.7352428  60.2495956  29.5109081  62.6344156  59.2977238
  29.8082852  63.6340475  60.3946686  54.7921324 104.3213081  43.4896564
  55.0230217 104.1524696  44.4031191  53.9614201 104.7945881  43.5361242
  46.5711832  97.0418835  52.5781536  45.7851887  96.6190434  52.9240561
  47.2742081  96.7533779  53.1601858  34.7570324  93.5638428  62.0979500
  34.5316553  93.9151573  62.9593563  34.0067077  93.0204964  61.8570852
  14.4045806  68.3522987  61.3381052  14.8241603  67.5342560  61.6045380
  14.6267140  68.4447384  60.4116344  18.4404063  90.8598423  13.3223641
  18.4019709  91.8120766  13.4117818  18.5407925  90.5389786  14.2185783
  35.0775337 102.9594994  37.0578766  35.1747870 102.6150131  37.9456258
  35.3680563 102.2453022  36.4906549  39.1637349  71.9839668  62.8548193
  39.0437388  72.8935814  62.5819969  39.9669456  71.9940138  63.3753824
  59.2627859   2.0456904  45.6629038  58.8509035   2.4385884  44.8933458
  59.8145866   1.3480443  45.3092957  11.5860999  99.3827724  51.4915133
  12.2340119 100.0855732  51.4413452  12.0567060  98.6512280  51.8910122
  43.8342619  89.8573208  51.3550997  44.5639849  90.0741386  51.9353867
  43.1456470  90.4777145  51.5941572  82.9418182  71.0274887  38.0922890
  83.6325645  70.4614592  38.4368443  82.5743008  70.5366182  37.3572993
  28.9779258  72.5396776  55.6949902  28.1642866  72.0378351  55.7437134
  29.6223950  71.9955826  56.1475945  16.2102735  80.4857349  45.5609035
  15.4992008  80.6126976  46.1889839  16.2586057  81.3138103  45.0832129
  53.5602951 101.3292027  66.1430359  53.5625935 100.3721619  66.1602736
  54.2252541 101.5586567  65.4938745  21.1134291  77.7630472  74.2296076
  20.2536511  77.6465511  74.6338892  21.6852665  78.0203915  74.9528027
  35.4450488  96.3764095  41.3906622  34.8266721  96.2403870  40.6727934
  35.8040285  97.2500324  41.2352562 113.8025761  97.9818821  35.1868367
 113.1149769  98.2385826  34.5723915 113.5944748  97.0756817  35.4142451
  29.8589635  64.7846937  56.0960674  30.3039074  63.9653635  56.3127518
  30.2686477  65.4372025  56.6640615  31.4086056  69.7921085  38.1651783
  31.7844462  69.3450642  37.4068069  32.1537137  69.9460983  38.7459803
  36.7514539  78.5553980  67.4061346  36.2766266  78.1652832  68.1400156
  36.5437818  77.9926300  66.6602182  35.0426292  73.2008171  42.6301527
  35.6400967  73.9258051  42.4466848  34.2552066  73.6210346  42.9760075
  38.9568806  79.1708422  53.9252090  38.1157851  79.0635347  54.3693638
  38.7300634  79.5233488  53.0646753   2.0761925  23.3976889   8.2915717
   1.3825402  22.8870773   7.8740126   1.6366312  24.1886926   8.6035472
  28.6515355  69.4073963  42.6515532  27.8589129  69.0997696  43.0912685
  28.5177684  69.1815567  41.7310429  22.8489614  95.1735020  51.2724161
  23.1639695  94.8586178  52.1196747  23.4784031  95.8485222  51.0186768
  25.3905582 101.0746288  77.5785446  25.9099174 100.3028011  77.3531818
  24.5106292 100.8723736  77.2606611  53.6875820  74.7036695  16.9497347
  54.4109297  75.2383280  17.2770619  53.7998724  74.7049189  15.9991455
  16.2191761  71.6062784  65.8380651  15.4013157  71.2985754  65.4473495
  16.7144012  70.8070612  66.0176229  36.9001698 106.6222572  43.6400366
  37.3173094 106.3033676  42.8396988  37.2994947 107.4785519  43.7934399
  16.2901294  96.1022568  32.6416469  15.6746387  96.8314934  32.7165246
  16.3698959  95.7636356  33.5333920  33.2668924  69.6806574  60.1541233
  33.4472919  69.0978718  59.4165277  32.3118424  69.7346592  60.1886940
  33.9536524  56.8089390  43.7653923  33.4562588  56.4583111  44.5042372
  33.8983846  57.7589417  43.8687229  36.8367100  70.2456570  57.8403473
  36.3966680  71.0954380  57.8188324  37.7693510  70.4594851  57.8666496
  22.2086430  85.2551746  51.6139603  22.3687720  84.3658066  51.9295788
  21.4912057  85.5774021  52.1595621  77.2341442  27.3546219  54.3465900
  77.1210146  26.7607760  55.0887346  77.9384041  26.9619203  53.8308001
  47.2703934  95.9301090  29.6367526  47.4583769  96.5349197  30.3544545
  48.1126642  95.8096218  29.1982388  21.7944121 102.6862049  22.9330993
  20.8468318 102.7901268  22.8463554  22.1204853 103.5743904  23.0781436
  53.0979395  97.2868538  47.1252060  53.5836458  96.4627934  47.1604013
  53.7545586  97.9597473  47.3048878  59.4201612  80.3558636  37.8932118
  58.7521839  80.2877903  38.5754180  59.3966579  79.5080185  37.4495411
  23.3748126  72.2807455  45.4667473  23.1247854  73.0312729  44.9278355
  23.9488816  71.7619228  44.9032784  10.7795358  69.8278713  55.9658718
  10.8041966  70.7813406  55.8851004  10.8695865  69.5090199  55.0678396
  16.5964365  88.8205242  28.9583421  16.3176906  88.2346630  28.2545686
  16.2160015  89.6683979  28.7289643  11.8862259  95.0614357  62.0504189
  12.8216946  95.2040482  62.1946049  11.4845610  95.2260494  62.9035330
  48.9614391  93.5642433  48.3138704  49.4100904  93.6096859  47.4695539
  49.6570444  93.3801937  48.9451313  42.4141836  73.9935732  61.4203548
  42.2720194  73.4591246  60.6390810  42.0731592  74.8565769  61.1854982
 108.3515358  90.7523251  49.7459269 109.2150497  90.3507996  49.6492529
 107.8397560  90.3977299  49.0188932 113.6549091  94.4609451  49.7802210
 114.1843605  93.7236023  50.0839376 113.3868122  94.9096584  50.5820942
  37.8003931   5.3456986  74.5317745  37.0235276   4.7875735  74.5665216
  38.3312082   4.9737656  73.8274097  40.1817083  88.7738514  74.1742229
  40.6196070  89.4967175  74.6235991  40.8581305  88.1025124  74.0848303
  24.6018600  94.0361500  57.4255228  24.5724821  93.6460495  58.2991314
  25.4271913  93.7264061  57.0525360  39.4865012  98.3625793  58.3053303
  39.9604440  98.6057281  59.1006231  38.6963415  98.9025497  58.3228540
 100.0799084  88.5550690  61.8397474 100.8926201  89.0547085  61.7616796
  99.5507145  89.0542030  62.4618816  20.5923963  54.0929079  49.6025467
  20.9235716  53.7508440  50.4329348  20.2764010  53.3202314  49.1341972
  39.2913556  64.9568653  56.3229370  39.2420077  64.3477726  57.0596886
  38.4390831  65.3925276  56.3148451  45.9562778  77.4098635  62.2491217
  45.7552004  77.6862860  63.1432104  46.5175390  76.6419315  62.3563480
  99.1988945  28.0086184   3.4517249  99.2232323  28.5854030   4.2152417
  98.6309814  27.2849274   3.7162602  61.1413336  76.2551117  42.8454351
  60.3645325  76.0661554  42.3190308  61.8598604  76.2754440  42.2133446
  21.6621137  77.4927473  52.5097275  22.4577665  77.1421862  52.1093845
  20.9712410  77.3038912  51.8746996  26.1453390  76.1540794  68.3162832
  25.5939460  75.5002499  67.8865099  25.5728316  76.9126987  68.4301376
  27.2196412  81.9143772  44.1943836  26.5350080  82.1939850  44.8021078
  26.9173598  82.2161388  43.3377647  66.2873936   2.0084892  62.7568293
  66.1158848   1.5710966  63.5907984  66.2714195   2.9419231  62.9682016
  99.3725204  81.8186378  21.4722657 100.1228333  81.3243866  21.8023872
  98.9792824  81.2457848  20.8139062  34.3948221  87.5135040  12.5482273
  35.3021193  87.7595806  12.7284729  34.3024969  87.6160526  11.6010249
  29.7692227  81.3635921  81.1400223  29.7188330  80.7450867  81.8688107
  28.8596511  81.6092682  80.9710598  40.6898928  88.9615059  52.1822071
  40.9535885  88.7024307  53.0651426  39.9041009  88.4442806  52.0054674
  34.5171380  87.0885658  23.2137156  33.5974264  86.9224930  23.4205532
  34.9817014  86.9163036  24.0327048  33.4161210  88.0614758  39.3919182
  33.0496240  87.8850842  40.2584028  32.6534820  88.2348347  38.8400483
  62.5247812  82.6265430  54.2691803  61.7168331  82.9562950  54.6625090
  62.3370171  82.5899506  53.3312893  17.7824759  52.4528837  68.7641668
  18.0787766  52.7171469  67.8931904  18.3447516  51.7131948  68.9942455
  10.6090021  88.1428432  68.7457275  11.0247576  87.2834110  68.6768055
  10.4304719  88.3958721  67.8400040 103.4525394  98.5824013  65.2652740
 102.9065704  99.3348312  65.0372410 103.3821297  98.5152054  66.2175131
  86.5416718   1.1335947  60.7264614  85.6842518   1.3267429  60.3473186
  87.1526909   1.6723117  60.2237892  20.4321504  66.9117165  73.9143896
  20.9028888  67.4717951  73.2971764  21.0443377  66.2020016  74.1087246
  40.6832218  95.2052498  40.5239153  41.0275412  95.7273865  41.2485123
  39.8117542  94.9368572  40.8150196  31.8521547  75.9381390  57.2678804
  30.9933114  75.6710625  57.5954342  32.1194649  75.2253199  56.6876507
  47.3717642   8.8055849  40.6818485  46.9170761   8.9456004  41.5124416
  48.2818556   8.6448616  40.9311295  29.1698384  55.1341677  68.4511948
  29.9774218  55.0514078  67.9440546  29.0908813  54.2998362  68.9136744
  21.1525965  80.1977634  63.6756468  20.6587696  80.2516651  64.4938517
  20.9369588  79.3347597  63.3221531  38.3758593  65.9996319  25.3825545
  37.7831173  66.0085011  26.1340928  38.8759899  66.8118715  25.4623699
  23.2590032  91.7436409  60.7043934  22.9163218  91.6590118  59.8146534
  24.2100668  91.7293739  60.5971241  29.4425178  78.4165955  38.1432033
  29.4585967  79.1504574  37.5288558  29.2338562  78.8158083  38.9877892
   3.6687279  59.4783926  76.4971924   4.4413346  59.4779205  75.9321165
   3.4518698  60.4043770  76.6056347  16.4249432  79.3421745  78.2705498
  16.0757971  78.9873552  79.0881252  16.4749646  78.5874414  77.6839447
   3.8938013  85.8338451  83.8890839   3.6700469  85.8541107  82.9586220
   3.7832502  86.7384720  84.1817665  90.6389904  22.2654605  50.2053499
  90.0391674  21.9765615  49.5176172  90.7859135  23.1931543  50.0208664
  45.9290266  91.3654327  46.1232376  45.4447031  92.1891975  46.1787462
  46.3734102  91.2914848  46.9678020  31.1123943  90.4225063  55.9710407
  31.9932246  90.7950974  55.9317303  31.1025000  89.7579098  55.2822399
  53.3606386  88.3513069  55.4764223  53.5256386  88.8117981  56.2991953
  52.8950214  87.5563240  55.7360983  33.9158249  77.2643280  63.2335043
  34.2654490  76.6884375  62.5535488  34.4876289  77.1194887  63.9873600
  57.8134298   7.6929539  75.3676081  57.7404594   6.8773079  75.8632135
  57.9103279   8.3714056  76.0358477  18.3262026  69.8089266  28.4896207
  18.1348062  68.8746691  28.4073806  18.2473588  69.9879885  29.4266105
  93.3404255  77.6956749  91.9022655  93.5797310  76.9229698  91.3905048
  94.1398525  77.9266500  92.3753262  25.3146219  67.3815870  39.7572637
  24.7572088  67.5671387  39.0015554  24.9756312  66.5582132  40.1085091
  29.0722060  74.9744701  67.6634502  29.1440701  74.9782801  66.7089605
  28.1402159  74.8369789  67.8329229  49.6170950  97.6830578  41.7229462
  49.7805643  98.2734871  42.4584055  48.6652136  97.5844860  41.7019272
 101.2599659  73.8810158  37.0540094 100.9558296  73.1386805  37.5761867
 100.9351254  74.6511126  37.5205541  50.9510374  79.8811007  66.2777567
  51.7297649  80.3721619  66.0157061  50.9303665  79.9561214  67.2317839
  24.3174243  62.6120710  65.8271456  24.5535350  63.1431866  66.5876722
  23.7512994  61.9259262  66.1806202  26.1101174  63.7670898  79.5754147
  26.0493064  63.7749434  80.5306530  25.3056264  63.3354950  79.2877436
   7.8274399  46.6194057  26.4246798   8.1730348  47.5056696  26.3182378
   7.7185243  46.5167379  27.3701048  23.6014366  52.7169466  71.3002682
  23.3093953  52.6672983  72.2104788  23.2458782  53.5457611  70.9795189
  72.2532225  99.3885422  32.4461699  72.5536728  98.5458279  32.1058631
  72.3381472  99.9897003  31.7061567 106.4981842  45.1183510  25.2759552
 106.4081669  44.6362686  24.4539285 107.0954704  44.5861626  25.8015561
   5.2397674  41.5675449  73.0183029   5.9660566  41.1016083  72.6040125
   4.4554019  41.1237383  72.6957512  41.0778952  43.4294224  44.1024113
  41.9950533  43.4885502  44.3699121  41.0119152  44.0089893  43.3434772
  26.3362765  75.9688091  59.1604471  26.0093045  76.8124437  59.4728661
  26.4689565  76.0963392  58.2211065 111.5439606  68.4954834  74.3364859
 111.4843845  69.0270472  75.1302862 112.3417568  68.7997246  73.9038181
   5.7179219 102.6149273  73.4901428   6.2054199 103.0278969  74.2029095
   5.2708560 101.8757915  73.9025116  26.8962288  94.8507881  64.5062637
  26.8704104  95.7351494  64.1409111  27.5286651  94.9059772  65.2226496
  39.4730878  72.9204988  29.0982461  39.8939681  72.4408913  28.3847594
  39.4769669  72.3078489  29.8336887  77.3917770  94.1567135  66.4084339
  76.7758942  93.4945488  66.0946512  78.2350969  93.7048244  66.4374256
  17.7233171  68.1453228  57.0765114  16.8410432  67.8292036  56.8818426
  18.3008468  67.5616217  56.5845919  57.7503395  12.5739300  51.5866232
  58.0940199  11.8740809  51.0313511  58.2048941  12.4622715  52.4215746
  34.2036200  41.7156124  50.6794405  34.0911126  41.6714907  49.7299004
  33.4762740  41.2021351  51.0309267  64.5543242   5.9161150  45.2904320
  64.9011898   5.0607169  45.5438280  63.7397528   5.7170755  44.8288155
  38.1483483  85.2922821  69.2116928  38.5515141  86.1531544  69.0995550
  38.3956170  84.8075867  68.4241867  42.5929880 104.9962807  58.2898569
  41.8799353 105.2519131  57.7046728  43.1591845 105.7670975  58.3284378
  37.1982813  66.5229750  56.4646387  36.8615389  67.1772480  57.0768213
  36.4158368  66.0941315  56.1180735  96.2117100   9.6004874  45.4231548
  96.2698174   8.7412238  45.0053930  95.4495239   9.5359874  45.9986067
  38.8479567  92.8951073  26.6507936  38.7010860  93.8091946  26.4077044
  39.7988224  92.8178978  26.7290688  17.5222695  76.2109900  20.2938461
  17.9217303  76.6342449  19.5338976  16.7037868  76.6879845  20.4309559
  47.5402498  86.9239998  60.4546595  48.4964657  86.8998146  60.4185963
  47.3178959  86.4328098  61.2455559   8.3971709  70.2331734  64.2673254
   9.0527445  69.9163675  64.8886871   8.8042921  70.9967518  63.8581419
  41.3578510 100.2325058  67.1377945  41.8517017 100.2681351  67.9569817
  40.5876064 100.7775784  67.2985697  40.8342314  67.3197079  53.0264473
  40.8994198  66.5525198  53.5951376  40.7396364  68.0572796  53.6291695
 110.4720592  61.1947107  52.2210598 111.2095642  61.6861629  52.5827217
 110.5004883  60.3520632  52.6742363   5.2729809  90.2632523  49.4866467
   6.1829525  89.9664497  49.4963789   4.9906039  90.1402187  48.5803604
  25.4271078  77.4467421  84.7010231  24.5501995  77.7985096  84.5476341
  25.8196521  78.0491018  85.3329277  76.8952990  86.4935589  63.3993578
  76.5642929  87.3501873  63.6692858  76.1087847  85.9801960  63.2147408
  40.8732271 106.8019772  80.5510139  41.6663170 107.0520401  81.0250568
  40.7994223 105.8576584  80.6890011  33.3534575  98.6854362  57.7588463
  32.8283191  98.3593464  57.0280027  33.0773282  99.5957947  57.8647661
  27.3308945  82.8627586  26.0342646  26.7384529  82.1153450  25.9529018
  27.1884370  83.1855583  26.9240642  45.3171682  70.6549454  64.5059919
  44.4239902  70.8972788  64.7504091  45.2112436  70.0917721  63.7392807
  23.2720304  79.8901510  53.1794119  22.8127003  79.0504551  53.1920433
  23.2633400  80.1540947  52.2593641  51.3693237  60.7214212  63.6198664
  50.9709167  60.5913019  62.7592993  51.2086630  59.9002934  64.0848064
   9.0620929  90.0273800  41.1380863   8.5507596  89.6449280  40.4250002
   8.5570371  90.7933521  41.4109325  38.3859849 103.5135555  73.2257986
  39.0032840 103.4777546  73.9564800  38.1332469 102.6017761  73.0808783
  50.9635925  84.6206093  46.1932755  50.8851862  85.0163651  47.0613003
  50.3367281  83.8972950  46.2023163  81.6986942   6.6374010  83.7288380
  81.0398388   7.2238845  83.3571148  81.2510300   6.2042153  84.4555950
  43.8990402  98.5442829  57.0132589  43.0492783  98.9450645  56.8301916
  43.7623739  98.0523014  57.8228998  57.8118944  90.1736450  24.1899657
  58.3049154  90.7594395  23.6155009  56.9982719  90.0020695  23.7158203
  45.1401901  84.9120808  32.4811625  44.5504427  85.5711365  32.8473258
  45.7405424  85.4098129  31.9261193  34.4539118  91.1068916  33.0332446
  34.3657041  91.6643429  33.8063526  33.6277413  91.2175179  32.5626731
  55.3152895  91.9602394  22.0807385  55.6964445  92.2727776  21.2602067
  55.4982090  92.6573658  22.7106452  63.6567307  99.9548435  56.8072319
  63.2349014  99.2196178  57.2519064  63.0015612 100.2642536  56.1817312
  40.3658104  84.7634888  54.2278767  40.7827187  85.2402020  54.9456263
  41.0622835  84.2134666  53.8692236   1.5803407  42.5626421  22.8040266
   0.6326922  42.6913404  22.7636504   1.9480574  43.4056282  22.5387216
  71.5588522  87.2081280  55.3223753  71.7587852  86.4029026  55.7997370
  71.5727425  87.8927803  55.9911776  13.1532693  49.1314363  62.5562572
  12.7780938  49.6750259  61.8634415  13.4590244  49.7573805  63.2127142
  20.6575418  80.5465984  56.1326265  20.1099229  81.3139534  55.9667349
  21.5382624  80.9020996  56.2517166  47.8995275  76.2906837  68.5533905
  48.7555790  76.1282110  68.1571388  47.5094414  75.4214621  68.6456347
  29.8044753  49.7681284  37.3990703  29.7360110  49.3724918  38.2679868
  29.4630408  50.6551743  37.5122118  36.3068557  77.0713997  64.9206066
  36.5212059  77.8905201  64.4741488  36.2670231  76.4201880  64.2201996
  80.4781437   1.2162043  18.0236840  80.7634735   1.3914713  18.9204025
  79.6698904   0.7132208  18.1235051 104.6266842  97.8455067  57.7007627
 104.4389725  97.2337914  58.4126616 105.5426598  97.6797199  57.4777794
  55.2786207  70.5565929  64.9003601  54.9607134  70.0239849  65.6293964
  56.2318516  70.4840899  64.9485874  74.5196342  22.8599811  58.6291885
  74.6194792  22.4785805  59.5014238  74.0982103  23.7053204  58.7842274
  73.8770866   7.5264210  48.8806343  73.7722540   7.8669685  49.7690392
  73.9142656   6.5763491  48.9911461  27.4845743  84.8772907  61.8411255
  27.8498244  85.3334045  62.5992727  27.9693246  84.0528774  61.8011665
  22.1552825  72.2843027  29.2947459  21.8575454  71.5265274  28.7913966
  21.3784623  72.5744963  29.7728372  14.6879601  91.5745926  54.6836233
  15.2978587  92.2069359  55.0636148  13.8432455  91.7888069  55.0796032
  51.1569881   3.2302144  43.3783150  51.2210131   2.4057399  42.8962612
  51.7695665   3.8159493  42.9334593  20.2031422  58.2749176  45.6319618
  19.8000312  57.8398275  46.3832474  20.9950542  58.6795521  45.9860468
  33.1981349  73.7038326  49.2266130  33.6577106  73.8395786  50.0552273
  33.8513088  73.9012241  48.5553217   2.2170855  84.6847343  45.5046272
   2.5983065  85.4733658  45.1186705   1.2719958  84.8309517  45.4639053
  43.7022066  94.4254017  37.6601887  43.3053637  93.7450790  37.1162057
  44.2565250  94.9210167  37.0574236  31.6882181  78.3034182  29.0077138
  31.7683148  77.9106903  29.8769569  32.5692844  78.6176968  28.8047743
  27.6451874  43.5765123  46.8967724  27.0293713  42.8500557  46.8005514
  27.1521449  44.2475224  47.3688841  52.0652962  67.2601128  59.0655375
  51.5002108  67.8035498  59.6147013  52.7180433  67.8679895  58.7181997
   1.1740415  93.6479759  36.3580704   0.7298683  92.8729057  36.7018867
   1.7940287  93.3033657  35.7153511  88.6676502  30.0801229  77.7841043
  88.0896759  30.8431077  77.7780008  88.1076622  29.3532681  77.5114679
  15.8421993  82.8620148  63.0242157  15.4202938  82.1758366  62.5071192
  15.2283573  83.0358028  63.7378168  95.2245426  16.5152586  29.8329043
  94.7952080  17.3545778  29.6672440  95.0895214  16.3574624  30.7673025
  33.3023715  99.5573044  36.6270423  32.6913881  98.9900112  36.1568213
  32.7623272 100.2822781  36.9416738 109.7348499  58.0091953  61.7846251
 109.8140526  57.8319883  60.8473110 109.6782875  58.9628696  61.8441391
  24.3741894 100.2731800  71.8452406  25.3228545 100.2493000  71.7199612
  24.0365696 100.6711102  71.0428047   9.3992579  97.0638752  60.3804159
   8.5978037  97.5306892  60.6170273   9.9736625  97.1749210  61.1380148
  38.0666924  64.1482973  43.9953423  37.2908449  64.3604183  43.4764051
  38.7678051  64.0542841  43.3504868  44.6656561  75.1885891  70.5012655
  44.1244316  74.6762276  71.1019230  44.1923475  75.1611662  69.6697235
  29.5790410  79.8505163  47.2721624  30.3280616  80.1438904  47.7909422
  29.7731900  80.1461983  46.3827181  57.6365423  13.1841910  71.6242361
  57.7818680  13.8974547  72.2458220  58.3573294  13.2607281  70.9990597
  69.5228624   4.1867113  44.1164017  70.4669142   4.0301734  44.0942144
  69.2741871   4.2818838  43.1969833  21.5198445  70.9133863  52.0383692
  20.5778003  70.8061934  51.9068623  21.9197750  70.3819561  51.3499880
  46.0869598  92.1624660  73.9695978  45.6196928  92.7701569  73.3963585
  46.9285250  92.5877190  74.1343737  51.7795420  97.0825386  27.5283241
  52.0164442  97.2933388  26.6251779  52.1110010  97.8196716  28.0411649
   7.3251766  93.9235401  33.4479260   6.4976412  93.7762260  33.9058709
   7.5808108  94.8122311  33.6951208  81.9164371  14.9765682  73.0987453
  82.3477936  15.3908253  72.3513794  81.0227203  15.3187835  73.0793619
  56.3512945  93.5487938  76.0911131  56.8228769  93.9304638  75.3507280
  56.0603189  94.3027401  76.6040850  50.1031399  86.2106037  30.7545447
  50.8243513  86.8230629  30.6096768  50.0072527  86.1742973  31.7062354
  79.6403408  15.0417149  44.9670362  79.2038250  15.7135677  44.4432974
  80.3086090  15.5184460  45.4593563  47.0687056  99.1332054  64.8492575
  47.4470186  99.8653603  65.3361416  46.4076662  99.5360470  64.2862463
   7.1723235   4.7303650  79.7172213   6.4262378   4.9056211  79.1437483
   7.2805572   3.7798265  79.6856976  58.1820774 104.2642212  42.2220373
  58.6877012 104.7964573  41.6077900  57.8097486 104.8965359  42.8366756
  36.5636277 105.9498787  69.4359350  36.4293718 106.3794899  70.2807045
  37.4605107 105.6178665  69.4759274  37.9379129  95.9087372  53.1609297
  38.1836414  95.4256153  53.9498806  38.7660646  96.2447739  52.8181744
   9.6167070  98.2253361  24.7583771  10.5445445  98.0122089  24.6587324
   9.5911944  98.8518429  25.4816079   4.8845410   5.3891492  78.0316973
   4.4033825   5.9282744  78.6594439   4.2201078   4.8157135  77.6496887
  45.2524185  92.1963787  35.7760882  45.3929090  92.9470158  36.3531923
  45.8563423  91.5284157  36.1006260  69.5392609   1.8758242  53.4599733
  70.2335739   2.4740724  53.1838274  69.5133400   1.9625431  54.4128847
  31.6406751  89.7253132  37.9769540  30.7876039  89.2921543  38.0064917
  31.9578218  89.5693398  37.0873928 100.1335907  74.0884924  14.1163623
 100.1263618  75.0012064  14.4046795 100.4737759  73.6026669  14.8676801
  15.7480454  66.2779617  52.6050663  15.8251262  65.3590202  52.3484755
  16.2585378  66.3449526  53.4119987  38.4654427   1.1327454  76.9239759
  37.7509809   0.9661206  76.3091516  38.2773352   2.0010796  77.2801256
  63.7067795  73.4419632  50.3639507  64.1223860  73.7661839  49.5649576
  62.8005123  73.2687426  50.1091909  86.2768745  88.8739109  27.1229053
  85.6826591  89.6161652  27.2333622  86.9672203  89.0215015  27.7693367
  69.9100780  89.9507141  47.1212673  70.6856728  89.6445465  47.5913143
  70.2488041  90.2786922  46.2882423  43.2039070  90.5735111  55.6207037
  42.6466608  91.0381889  56.2450361  43.6792183  91.2663174  55.1620913
  93.0611515   2.8072175  77.4175882  92.6937771   2.6168352  76.5544415
  93.7630749   3.4349808  77.2459793  63.1204748  97.4788189  18.3701158
  63.5795450  96.6416359  18.4379625  62.8273630  97.6642418  19.2622674
  14.0591013 101.6320992  60.1923323  13.7689853 101.8248177  61.0839176
  14.7755623 101.0071373  60.3034163  89.6939945  47.7263546   8.8676465
  89.2179680  48.5518742   8.9579237  89.0834713  47.1463585   8.4125674
  93.3458042  21.1154985  46.2701464  93.7903023  20.8753061  45.4571533
  92.5586987  21.5794420  45.9847355  74.2477751  27.7512097  57.8612280
  74.3816090  27.4084783  58.7448883  73.3907032  28.1759787  57.8963375
  52.8692865  86.5832233  37.1152544  52.1151590  86.0897160  36.7928028
  52.6456022  86.7978859  38.0208588 103.8931084  17.4163842  52.9668617
 104.7036743  17.4381447  52.4582005 103.8401222  16.5186489  53.2947302
  91.2234306   2.7512431  56.7464828  91.8330097   2.0273620  56.6028214
  90.6259346   2.4307150  57.4221277  22.3629665  84.2212200  57.6684189
  21.6021299  84.4754028  57.1461630  22.0079827  84.0482807  58.5403776
  24.2045021  96.5307999  36.9631600  25.1136470  96.3192654  36.7511702
  23.7602210  96.5544796  36.1156440  73.9883661  26.6721463  60.1429558
  73.3913469  27.1758986  60.6961632  73.5244370  25.8519626  59.9747324
  43.9546824  94.3569469  77.9903984  43.1116438  94.0630436  78.3355761
  43.8113594  94.4409847  77.0477295  47.2783566 107.3831463  67.3080492
  47.7124882 107.9857159  67.9119205  47.6701260 106.5305805  67.4974775
  50.7748461  90.4592323  58.2001305  50.1844406  89.7058582  58.1910324
  50.7664680  90.7810020  57.2986746  43.6831522  74.4006014  74.8716688
  43.9485836  74.0926838  75.7382488  43.1945992  75.2057362  75.0428391
  39.6058846  69.0204716  73.3370781  38.8046122  68.7874174  73.8059902
  40.0052547  69.7067261  73.8716698  26.2621808  93.5408497  62.3787928
  26.6337109  94.1622543  61.7526484  26.7552710  93.6900043  63.1855440
   8.4146917 104.4951153  92.3594189   7.4778521 104.6907711  92.3426056
   8.8154954 105.2754116  92.7424622  61.4460135  89.3662548  63.8438511
  61.1976290  88.6422539  63.2690907  60.6847858  89.4948292  64.4097376
  22.0363951 100.3703690  59.6358871  21.1826110 100.1939487  59.2407179
  22.6509380 100.3380203  58.9027262  33.8296366  62.6058292  69.5974493
  33.3369064  63.3757734  69.8814201  34.5097136  62.9556036  69.0217876
  74.3813229  71.4947605  67.1306896  75.0681448  71.0128975  67.5914669
  73.5748005  71.2596989  67.5894880  79.3926144  85.3316498  68.2534695
  78.6405087  85.9081364  68.1184387  79.0129328  84.5139694  68.5751438
  65.8556175 104.4917965  56.8774652  66.6293001 104.3790436  56.3252544
  66.2076664 104.6806908  57.7472973  35.4846072 103.5606194  81.5111160
  35.2761674 103.1164932  82.3330212  35.1826525 102.9590511  80.8305454
 113.1572819  92.6446819  23.0412745 113.0435467  93.1297207  22.2239423
 112.3463631  92.7986336  23.5259771  44.4847775  85.7108116  45.5092907
  43.6632061  85.9129524  45.9569454  44.5908117  86.4176369  44.8725843
  43.7741375  76.8889284  64.8510122  44.0057993  75.9627533  64.7819948
  44.6123552  77.3379707  64.9604845  66.8918276  88.0189705  64.6029139
  67.4791002  88.7281036  64.3412304  66.0826826  88.1876183  64.1201401
  20.6177306  95.5241585  49.9118567  21.2482667  95.3388691  50.6077909
  20.9272408  95.0110817  49.1654015 103.5485363   7.6581395  38.0557323
 104.2596054   8.0712253  38.5456014 103.9343548   6.8556982  37.7043581
  37.9449582  81.2499332  37.7886105  37.6023555  80.5461216  37.2376966
  38.8879848  81.2450314  37.6245666  33.0702043  95.6608963  39.0128803
  33.7437797  94.9821568  39.0557814  33.5590982  96.4772987  38.9094400
  84.8379230  22.8519869  58.2227850  83.9279842  22.8855443  57.9276323
  85.2844048  23.5169649  57.6986694  59.1859531  99.5994759  46.3531542
  59.9474096  99.0254784  46.2697792  58.5350752  99.2213154  45.7618952
  56.2526989  90.3169441  62.9927969  56.8182945  89.5572186  62.8544569
  56.7394686  91.0497761  62.6156330  60.2779722  91.0710812  18.0147684
  60.3924847  91.1251259  18.9635563  60.9500408  91.6523933  17.6589084
  39.3576384  83.7526321  29.7710419  38.5953188  83.3508015  29.3543553
  39.0564966  83.9831066  30.6499219  34.0507245 103.4808540  16.7307889
  33.3138800 102.8942204  16.9015110  33.6550903 104.3501663  16.6674471
  92.4476337   1.2843078  32.1711040  92.9927540   2.0448318  31.9694018
  92.2305393   1.3842867  33.0979824  21.5341163  68.7658167  25.5392170
  21.2946177  68.5242414  24.6445036  21.4468670  67.9535866  26.0381150
  38.8651013 100.4767227   8.3809412  39.0395045 100.7043839   7.4677110
  38.5295987 101.2847042   8.7693292  41.7834568  87.4862480  31.0621595
  42.4167395  87.0481873  30.4935741  40.9659576  87.4738693  30.5643916
 107.5492096   8.0921239  53.8346958 107.4606037   8.1062192  52.8817081
 107.2935867   7.2045553  54.0859079  49.9189377  61.1142111  17.5952327
  50.1563978  60.3174067  17.1209490  49.1810417  61.4747190  17.1035171
  29.1049051  93.7826824  28.9233875  28.2650423  94.1875458  28.7067246
  29.7584367  94.4285965  28.6552000  64.0780544  67.5590038  64.4912195
  63.1274700  67.6248264  64.5822573  64.3728256  68.4646893  64.3959427
  44.3809509   5.9818834  59.7456121  44.8389482   5.2096152  60.0773811
  44.7585678   6.1302483  58.8786459  93.2583809  27.0071149  50.0042295
  93.6339283  27.8422737  49.7254658  92.4906826  27.2504878  50.5215693
  77.4235201   9.3838304  53.5216761  77.7929592   8.9730966  52.7399826
  76.6355610   9.8283404  53.2090044  35.0804591  13.5151446  76.2558651
  35.2669430  13.7032652  75.3360462  34.3726468  12.8712797  76.2299252
  16.2919867  96.8851852  73.7400484  15.9926832  97.7820492  73.5907841
  15.4998589  96.3529110  73.6661816  74.5628452  89.1746998  80.8399582
  74.3536997  89.1275692  81.7728329  75.2936220  89.7908306  80.7891655
   6.1051059  95.0934792  59.2226458   6.0465038  95.5566311  58.3870125
   5.2110142  95.1018620  59.5643473  68.3262396  10.3480041  56.7427111
  67.8587008  10.1922679  55.9221077  67.6456928  10.3195715  57.4152279
  16.2152743 100.1066208  60.6226540  16.8950605 100.4849339  61.1803293
  16.6953421  99.5796490  59.9838543  62.1257067  14.0360236  40.9153652
  61.5022707  13.4149873  41.2920237  61.6665554  14.4100118  40.1633406
  35.6399894 101.6587353  39.3083930  35.7107115 100.8068371  38.8776994
  36.5461683 101.9443321  39.4246006  13.2383430  97.8895950  84.9735069
  12.6257801  98.5942650  85.1843166  13.6192584  97.6432228  85.8163834
  74.0931797   2.5120175  35.8330750  73.2625103   2.0450391  35.9233880
  74.6744823   1.8855563  35.4019523  98.3706284   5.3384268  45.1094818
  99.2479324   5.7209623  45.1249599  98.5215092   4.3960944  45.0354576
  52.2039795  87.3086739  39.6224427  52.6028824  86.7051125  40.2491999
  51.2938643  87.3846531  39.9090672 100.5548477   6.4982271  76.6766739
 101.3634109   6.4284545  77.1842194  99.9593067   6.9907910  77.2414255
  51.2833118  84.6625042  35.8024573  50.8414412  83.8189030  35.8989358
  50.5720568  85.2957726  35.7058787  16.9538915  90.3921986  51.9351864
  17.5054872  90.0459671  52.6366854  17.4179029  90.1624298  51.1301184
 103.6700249   7.4342412  63.3131123 103.2905769   8.0369669  63.9526224
 103.0274391   6.7287552  63.2382488  70.5378723  78.9955473  53.9820290
  70.8482456  78.2868767  53.4183931  70.1516151  78.5501337  54.7361135
  11.0640669  62.3324966  76.2512875  11.0165524  61.5246773  76.7625618
  11.5361464  62.9453325  76.8150330  80.1076698   8.5408330  15.5080366
  79.9398851   9.3988788  15.1183712  80.8826160   8.2167459  15.0490725
   7.0858252  42.0518970  78.0296755   6.7305809  42.8836679  77.7163219
   7.1664524  41.5139723  77.2420406  79.1786528  93.8481426  27.6632571
  79.8426723  93.8376045  28.3526039  79.3985271  94.6124268  27.1305728
   8.2903653  92.8192616  45.4067659   9.2087615  92.7189827  45.6572151
   7.8568822  93.1252289  46.2034512  20.0583649  88.8057232  52.2676229
  20.4098392  89.2823601  53.0196285  20.7084489  88.9349365  51.5770197
  83.2582092   2.2921145  70.8935547  82.7040958   2.2513255  70.1141167
  82.9873276   3.0952978  71.3382387   3.5770038  93.8080120  58.9620781
   3.2358134  93.1342697  59.5502043   3.8459608  93.3282375  58.1786776
  48.5928535 106.2012100  71.2837172  48.2597542 106.1187744  72.1772957
  47.9510355 106.7548370  70.8389759  60.1468515  82.3791504  61.3968563
  60.6011343  81.6846752  61.8739033  59.3143988  82.4815750  61.8581152
  65.7813311  22.5471830  22.3425388  66.0169506  23.4009337  21.9794607
  64.8833036  22.4002051  22.0455956  50.6413841  74.6916151  81.6454792
  51.4954185  74.6449375  81.2157440  50.7303858  74.1316462  82.4166775
   1.6460939  17.3813403  76.1488056   2.5760320  17.6050043  76.1111069
   1.2389252  17.9372406  75.4844093  58.3025217  91.6659260  67.0251322
  57.3799706  91.4153481  66.9767761  58.6868095  91.3216114  66.2189054
  84.0672970   3.7820733  28.6453271  83.4741211   4.5292208  28.5669160
  83.9304161   3.2821029  27.8406382  80.5809498   4.8641142  71.6919708
  80.0697517   5.6407839  71.4646101  79.9486780   4.1458526  71.6683435
  36.5782690 100.1310825  69.5725250  35.7036662 100.4149246  69.3065643
  37.0264912  99.9338531  68.7500715  52.6156473  99.5572281  30.6117082
  52.8118086  99.7880459  29.7037005  51.7284822  99.8863220  30.7561922
  69.5197248  42.3892784  38.0519915  69.9298573  43.2423306  38.1945753
  68.5946083  42.5891876  37.9090810  42.3919916 103.9013195  48.7887859
  43.1830978 103.6070347  49.2402077  42.6199007 103.8678741  47.8597164
  53.3109713  16.9868326  84.0620041  54.0553904  17.2581792  83.5249329
  52.5848722  16.9090831  83.4431648  14.0213597  98.2296562  60.9947205
  13.9915478  97.6027775  61.7174768  14.8278773  98.7243271  61.1398363
  86.9397545   7.3912263  71.6634607  86.6004467   7.8721440  70.9085941
  86.1640453   7.1871436  72.1858263  37.8165388  99.8544121  66.7776155
  38.3288717  99.0519905  66.6782618  38.2959318 100.5090714  66.2698507
  60.5982924  90.5731297  43.1384087  61.3159466  91.0484886  43.5570192
  61.0252810  89.8481941  42.6819277   8.7307739  85.5740738  72.7405930
   8.4975660  86.2639999  73.3617592   8.9926696  84.8354530  73.2902193
  52.1712208  59.0513897  68.9221954  52.6153231  58.2070637  69.0004206
  51.8419313  59.2313051  69.8027802  74.1635895  94.4518661  40.7216597
  74.4985723  95.0576401  40.0605583  74.1300869  93.6054516  40.2758980
  61.7110395  91.1179638  67.2250319  62.0984650  91.1620045  68.0992126
  61.5302944  90.1877689  67.0897388  38.7623644   5.0405699  50.8369255
  37.8919864   5.4155713  50.9712696  38.9315939   5.1569235  49.9020147
  74.2895699  13.0011618  53.3568048  74.6695089  13.8753557  53.2692432
  73.3592081  13.1243920  53.1684589  41.7076015  70.3300476  51.6586304
  40.9277773  70.2375841  51.1113119  41.4995337  69.8433685  52.4561787
  50.9186268  97.7393818  50.3655005  50.4368973  96.9996357  50.7355547
  50.8301067  97.6331329  49.4183397  64.3723822 101.6955185  85.7706547
  63.8289976 100.9938622  86.1293125  63.7634611 102.2372341  85.2686691
  13.4182274  89.6501160  72.9048252  14.3142045  89.9414158  73.0739355
  13.5153890  88.9171982  72.2968531  36.6086245 107.2426605  78.5940695
  36.3026905 106.9076347  79.4369221  35.8956909 107.0477581  77.9858160
  47.9321241  80.5128670  31.2017107  47.9591560  80.1191711  30.3296447
  47.3597670  81.2737656  31.1033487   5.3183538   4.3873385  55.0574827
   4.6951476   4.9338385  55.5362129   5.7775927   3.8953105  55.7380962
  59.4960690  65.7798624  56.6422939  59.6611118  66.1013317  57.5286627
  59.6576595  66.5367460  56.0790491  79.9211836  96.4257050  81.4403915
  80.3496933  95.6329632  81.7631435  79.3380499  96.6894817  82.1521568
  43.6216402 101.8526936  43.6822033  44.5288420 101.5563869  43.6086035
  43.1595230 101.3842201  42.9870701  56.2421465  99.8098087  59.0830898
  56.5848732  99.2297554  58.4031582  56.3646412  99.3224525  59.8977757
  34.7531843  80.3462410  86.8370056  33.8946557  80.2096081  87.2376251
  35.1516104  81.0443974  87.3566818  92.1648502  27.2126269   0.8708954
  91.2321472  27.0831442   1.0427427  92.3113155  28.1444240   1.0337997
  19.7938097  92.6417065  57.6495075  19.6818042  93.2135296  58.4089136
  19.0939915  92.9001713  57.0497751  87.4788475  12.2953653  78.0127048
  88.0006886  12.7940512  78.6413717  87.8197002  12.5571692  77.1574211
  36.8590999 100.1296997  72.1971035  36.7001438 100.0119781  71.2605667
  36.0540795  99.8261738  72.6166868  38.6597061 106.3604164  60.2215433
  38.6649442 106.9745064  60.9557772  38.5204864 105.5042744  60.6263447
  89.9680519   7.1760237  16.5457189  89.7292519   6.3609481  16.9871497
  90.9111691   7.2577441  16.6874361  26.3446736  61.5363646  24.2086935
  25.8359122  61.3617325  25.0004625  27.1286702  60.9954643  24.3036056
 104.6179008   4.6812603  20.2373767 104.5937061   4.1572830  21.0380602
 105.4738140   4.4918656  19.8529685  83.4254742  10.6322646  43.8400316
  83.2397747  11.4252448  44.3429470  84.3081856  10.7682443  43.4957075
  95.5892181  74.4093132  40.3181219  95.0144958  74.8083019  40.9713697
  95.6359673  73.4874105  40.5713749  31.3162923  46.3746834   9.1046721
  30.9666777  46.9382524   9.7948837  31.6027069  46.9815397   8.4220845
  49.6961832   5.2277637  58.3722973  49.6521235   4.6511924  59.1350937
  48.8970566   5.0367761  57.8812218  53.8059282  73.7860632  55.6413031
  53.7561798  73.7171030  54.6878862  53.5620165  72.9161167  55.9574175
   8.4522313  94.4512463  60.4054689   8.8774753  95.2995872  60.2800655
   7.5288218  94.6156216  60.2143478  86.4614391   1.4030997  56.4694691
  86.0727406   0.6904820  56.9767380  87.3902416   1.1784908  56.4136791
   9.9751830   3.0359626  46.0593748   9.3979836   3.2497305  45.3263187
   9.6907705   3.6164442  46.7653370   9.3276083  16.5828168  67.8892183
   9.0822232  17.5072515  67.9271364   9.0315241  16.2915957  67.0268011
  16.6278446  98.3200550  81.9531918  15.6946242  98.1136513  81.9009686
  17.0359635  97.7505779  81.3009834  87.2854137   4.2028907  38.6157799
  87.6455975   3.3657566  38.9085317  87.3644829   4.7771505  39.3774939
 109.9365330   9.5399785  56.5245056 110.0985527  10.1877594  55.8386755
 110.6529427   8.9115745  56.4344883  91.1116505   1.6700940  39.9772596
  91.5971565   2.4106669  39.6138477  91.4069080   0.9163182  39.4664955
  94.4987392  42.6597166  61.4844418  94.6676064  42.8151751  62.4137115
  95.2935219  42.2326851  61.1647463  92.6907349   5.4082555  46.0920858
  93.5180569   5.3434104  46.5691280  92.7952671   4.8135412  45.3493738
  49.5930338  86.8352795  36.4244056  48.6385393  86.9070625  36.4204359
  49.8169422  86.6694450  37.3401546  58.5534763  70.0936031  80.0424576
  59.1693830  69.3820095  80.2171707  57.6912928  69.7072649  80.1961422
  77.8357077  20.8320403  75.8437395  77.3776865  21.6362762  75.5994987
  78.0364418  20.9434962  76.7729902  54.4244909  74.4858980  69.3189716
  55.1496220  73.9058781  69.5513439  53.7535429  74.3062115  69.9775887
  23.2667732  86.6065884  28.7222409  23.1130481  87.5448895  28.6118698
  24.1836047  86.5439606  28.9900661  58.7051964  69.9807024  61.7637682
  58.9837074  70.8963156  61.7459345  57.9962063  69.9584913  62.4064732
  20.6186008  93.5935879  39.7009134  21.0600686  92.8564739  40.1228237
  20.0911880  93.9867401  40.3962517 100.4867554  12.6531148  80.0310993
 101.0056305  13.1961799  79.4377327 100.4474354  11.7987943  79.6011925
  93.0628204   9.2050171  20.3089285  92.9423904   9.4787741  19.3996501
  92.6481247   8.3436292  20.3566480  57.3307037 105.8010960  84.4056034
  57.1241379 105.0657082  84.9824715  57.8384018 105.4117489  83.6936474
  42.2656107  85.2704716  10.1340020  42.5431585  84.5017052   9.6358114
  41.9012928  85.8631897   9.4765884  99.8419380  40.5997849   9.9376851
  99.4305706  41.0721540   9.2138904 100.7743740  40.5951023   9.7214299
  57.5619268  90.1108074  54.8928356  57.3642445  89.5340729  54.1549110
  57.2392178  90.9693432  54.6189690  42.3404598  85.7188511  42.4830866
  43.1708527  85.2428150  42.4911356  41.8502903  85.3578949  43.2217884
  80.6322002 102.3532295  43.2846498  79.7585440 102.1741772  42.9369497
  80.4920769 102.5011730  44.2199087  23.4416986   9.2876256   2.5485435
  24.0456820   8.6913913   2.9911941  22.6289439   8.7885517   2.4673621
  31.5776348  98.9876270  31.9539022  32.3653913  99.0431690  31.4129901
  31.7860007  98.3257484  32.6132417  32.0264697  89.2431450  81.1131191
  31.8693614  88.3292007  81.3502979  31.6464949  89.7462273  81.8333721
  61.8165588  14.8867142  58.4489870  61.7377949  15.2218401  57.5558329
  61.3021803  14.0794683  58.4481430  48.9852953 100.8296108  84.2563725
  49.0266132 101.6882324  83.8352966  48.5662746 100.9967804  85.1005936
  52.2433233  79.8291111  74.6923065  52.0993900  80.2145100  73.8280249
  52.9023647  79.1506672  74.5452833  22.8306556 105.2269840  62.3540020
  23.2181287 104.3640614  62.5005102  21.9299078 105.1412296  62.6663017
  44.8939562  73.3670092  42.3010826  45.3321934  72.6840305  41.7934227
  44.4910574  72.9000473  43.0331039  51.6378260   1.1674622  65.8169699
  50.7255316   1.2104888  65.5304384  51.6006947   1.3294199  66.7596388
  56.9594622  99.7909355  74.5047045  57.3112726 100.6742477  74.6152830
  56.4338493  99.8406887  73.7062740  19.4495595  91.9280243  71.6819859
  19.5979810  91.9808006  70.7378340  18.5760510  92.2985458  71.8081999
  60.7622528  77.3992109  83.0208206  60.3690147  77.3391867  83.8914490
  60.6598139  76.5223980  82.6507759  85.1223946   3.8641512  55.2475214
  85.7361507   4.2641985  54.6314955  84.4938374   3.4017426  54.6931505
  67.4868774  23.3979154  43.1941748  66.6242313  23.0141234  43.3515978
  67.7392817  23.7738585  44.0374947  69.8093843  65.2107334   0.6168576
  69.9799347  64.8054409   1.4670816  70.1945210  64.6066904  -0.0179898
  33.4738874  89.6762276  22.6610518  34.0488839  88.9791203  22.9767394
  33.5471439  89.6337509  21.7076039  35.0511694  85.8122730  60.1175308
  34.7138691  85.6338596  60.9953880  35.9534502  86.0977745  60.2610826
  40.2795649  67.2220087  44.5531321  39.5486832  67.0512152  45.1471615
  41.0237932  66.7726612  44.9536800 110.5939007  16.2608683  12.0714378
 110.2495670  17.0937467  12.3938954 109.8490143  15.6612194  12.1138763
  67.9409456  98.7199497  44.9955034  68.8556194  98.9617062  44.8500347
  67.9687023  98.1103611  45.7329702  78.2474518  10.8842003  78.8557529
  78.2323265  11.5675557  78.1856585  79.1183472  10.9518039  79.2471695
   5.6963241  28.0112171  48.5829592   5.4726648  27.1605492  48.2053709
   6.3773239  28.3576155  48.0063486  68.4016991   3.5029161  47.9981232
  69.1947031   2.9668519  47.9941177  68.5498428   4.1445452  48.6928177
  85.7377052  24.1813684  69.1259861  86.3438416  23.8312936  68.4730768
  85.0792217  24.6509743  68.6140251 111.8483639  50.2476501   1.9213349
 111.4676666  51.0483122   1.5604451 111.8889618  49.6456671   1.1782324
  68.2281303  87.9503059  68.3978891  67.6711893  87.2975636  67.9736614
  69.0058422  87.9992390  67.8420067  54.8854113   3.2852185  30.1287222
  55.5776834   3.8469997  30.4771328  54.0826893   3.7930864  30.2467775
  52.6723957  99.2655182  61.9801188  52.0343733  99.1344643  62.6815319
  53.5102844  99.3602085  62.4331236  70.1991940   9.8387647  60.3692198
  69.4662857   9.7854197  60.9825993  70.9779978   9.8352695  60.9257126
 109.7077847  14.1666782  84.0948868 109.7597885  13.3982301  84.6632290
 109.9333096  13.8369417  83.2250309  82.6913929  18.0969751  67.0611191
  81.7997646  17.7568066  66.9868040  82.8242111  18.2173955  68.0013800
  36.7685223   4.2017549  61.9115067  37.1375608   3.5124773  61.3592958
  37.5276208   4.5982963  62.3390055   3.8762763   8.1546003  38.6168742
   4.5347792   8.5110849  38.0206156   3.2842177   8.8875353  38.7857080
   1.6952153  55.8286333  53.2690668   2.1174075  56.4909267  52.7219343
   0.7591416  56.0105562  53.1859827  80.5055332   3.7884396  35.8286905
  80.0154209   4.1831559  35.1074243  81.3537121   4.2318019  35.8128333
  83.0800056  72.0734167  71.0919285  82.8923416  71.2661457  71.5708160
  82.2345448  72.5181627  71.0316038  62.7719498 101.2381649  51.6076994
  63.2432079 100.6587696  51.0089970  61.8496656 101.0166645  51.4790297
   3.8797688  23.2773376  90.1819324   4.4653326  22.7735853  89.6166229
   3.0158287  22.8919053  90.0360584 108.5048485  23.8485551  41.1300230
 108.8909435  23.2679939  41.7858505 108.5278606  23.3417964  40.3182983
  91.4544868  22.2423100  55.7876158  91.2052441  21.5726876  55.1506567
  91.9091129  21.7591310  56.4776039  21.5291929   2.0684960  60.4131794
  21.3157535   2.4830669  61.2491226  20.9204459   2.4622825  59.7882032
  96.5091038  29.1264057  39.3342447  96.7189980  29.9636102  39.7480869
  96.7280483  28.4704995  39.9961233  62.7063322  11.8300116  52.1147871
  62.1511221  11.2089539  52.5862265  62.2185421  12.0284677  51.3154650
  15.2572703  19.6822202  91.9772243  14.3524027  19.7546840  91.6735840
  15.2591348  20.1163363  92.8303146  86.1713123 101.2326050  69.0309525
  85.7077312 100.6149769  68.4653902  85.5741501 101.9760895  69.1138697
  32.9140759  84.2396069  18.3293355  33.5078406  84.1798973  19.0777397
  32.5998282  85.1436234  18.3444500 104.8886776  18.7070727  36.1198568
 105.6892490  18.6130607  35.6036353 104.2534065  19.0827835  35.5103469
  64.0729189  81.0252571  65.9662580  64.5475054  80.6080914  66.6852617
  63.3372307  81.4676476  66.3896751 107.9963017  19.4854784  39.8160219
 108.6835575  19.3084395  40.4583311 107.3649216  18.7766802  39.9392939
  18.6559844  98.8544750  55.4733515  17.7318609  98.6557579  55.3225565
  19.0892804  98.0010223  55.4629850  29.6018052  85.8076286  75.9773350
  28.9984798  86.1476421  75.3165627  30.1704764  85.2067661  75.4958677
   9.4759995  11.5686262  39.5921922   8.9336568  10.9301639  40.0552940
   8.8678151  12.2653937  39.3454957  61.9426727 104.1018867  47.1049070
  62.5078297 103.5422897  47.6375246  61.2601519 103.5140705  46.7810774
   6.6891789  30.5091143  64.9180031   6.6242069  30.8661056  64.0322447
   5.9872001  30.9428310  65.4031277  93.2576656   6.1577636  30.3191471
  92.4606514   6.6425925  30.1048088  93.9552975   6.6315162  29.8662615
 100.6518459  95.9608269  44.2496872 100.2388382  96.7998791  44.4537497
 100.1950169  95.6531048  43.4668398  98.1617546  31.3312507  60.2942991
  98.4312916  32.0584917  59.7333193  98.0536461  31.7241740  61.1604118
  16.7124879  61.1514378  53.4552097  17.3295176  60.4733419  53.1800890
  16.2360978  60.7591677  54.1869259  94.7626972  15.4064512  72.5768137
  94.5423698  15.8264780  73.4082365  95.1780987  16.0980952  72.0617437
  45.5903912  93.5557461  29.4742346  45.3563118  93.4232140  30.3928614
  45.8100748  94.4855022  29.4147825  48.8188887  89.5115948  61.8141651
  47.9377127  89.1625690  61.9481182  49.3703175  88.7361908  61.7097187
  55.8946037  86.7075634  76.7877102  55.3637934  85.9129524  76.8430758
  55.3253603  87.3464584  76.3587427  37.9594040  91.7422199  46.8890190
  38.6540699  92.3405647  46.6139746  37.7719259  91.9925690  47.7936792
  94.4517708  16.4608741  41.8970633  94.9849892  15.7614136  41.5193462
  93.5523891  16.1408114  41.8270779  50.2965832  91.0240650  55.4095459
  49.4549227  90.9030724  55.8490944  50.3795528  90.2615261  54.8369312
  49.9112368  85.0081635  59.5763159  49.6368647  84.6020317  58.7541151
  50.8676863  84.9820709  59.5488691  96.6927814  37.5302815  77.6969528
  96.5118313  36.7918539  78.2785082  95.8545780  37.7111793  77.2716141
  44.9082470  80.0884819  77.3883486  45.6373882  79.7648287  77.9173470
  45.0308704  81.0375500  77.3666096  74.0285587   2.3071599  50.1225090
  73.7090445   1.4400858  50.3721571  74.6402693   2.5466052  50.8187151
  74.8075342  87.0571518  44.3513823  74.5514488  87.5510883  45.1302814
  75.5558968  87.5381470  43.9980650  26.4527440 103.3190441  59.6945238
  27.0321465 104.0448380  59.4626951  26.4272523 103.3291340  60.6513309
  33.6913466  86.5732956  58.0572891  34.2371202  86.5304947  58.8424826
  32.9308486  86.0301399  58.2643127  91.7816544  37.7905011  63.8392973
  92.6291943  37.8044415  64.2839384  91.9392872  38.2401490  63.0091143
  55.5897856  91.7073917  14.2124283  55.4649353  91.2894535  13.3603835
  54.7995758  91.4867592  14.7055066  94.0792465   7.1161735  72.9182291
  93.1659031   7.1521842  72.6340866  94.5764732   7.4422300  72.1681070
  97.3905945  38.0757809  45.3552628  97.3615360  38.3130026  46.2821436
  97.7317715  37.1814823  45.3474951 112.3741436   0.8388503  47.5593138
 112.0738602   1.3868560  46.8342257 113.1482697   1.2901047  47.8959560
  42.5958681  96.6387558  43.2791948  42.8680468  96.9435501  44.1447926
  42.5819349  97.4296761  42.7402258  11.2538695  48.6103535  72.9520321
  12.1096408  48.7080002  73.3695889  11.4518845  48.2897663  72.0721197
  94.7638130  18.9764607  58.3107567  95.3497791  19.6632361  57.9926109
  94.4548035  19.2985451  59.1575193  81.1666965  34.4694567  35.0433993
  80.6460857  34.6589231  35.8239770  81.8736553  33.9059901  35.3579688
  85.2976131   0.7742169  48.4321880  85.9037495   1.3140109  47.9247904
  85.8250141   0.4386871  49.1570997  78.4323263  27.0086169  69.4424438
  79.1026926  26.9246817  70.1205254  78.9260530  27.1216154  68.6302233
  94.1764164  35.7141089  67.8837633  94.1506767  35.5149269  66.9478703
  93.4077358  35.2718616  68.2439947 107.6288986  29.8324895  81.8078613
 107.8749371  29.7687030  82.7306938 107.8122997  28.9636564  81.4504719
   3.1097215  29.4083095  89.6460438   3.0686960  29.1226554  90.5587101
   3.6714351  30.1831865  89.6626282  91.2995338  93.7606430  52.7415371
  91.4637566  93.5978794  53.6703873  90.9157944  92.9449558  52.4196291
  95.5995464  29.3065858  74.2324495  95.4059792  28.3943081  74.4480991
  95.6035805  29.7567272  75.0771904  97.2319317 100.1403141  64.3496418
  97.0490265 100.9102154  64.8882008  96.6763020  99.4531822  64.7175455
  29.1852117 103.6193848  78.0986547  29.4057035 103.0763531  78.8554382
  29.7243142 104.4036388  78.2013845 104.0768147  29.6479011  62.6340199
 104.7954941  30.0635386  62.1576023 104.5075130  29.0372801  63.2322407
  63.0881992 107.2109823  81.2253857  62.8947463 106.4386731  80.6940269
  62.4457183 107.8623512  80.9440231  87.7769089  21.1949062  62.6294756
  87.9088306  20.6091046  61.8840456  87.6312351  22.0549607  62.2353697
 100.8347893  17.0508957  52.4554682 101.7525196  16.9394565  52.2073317
 100.7249928  16.4916325  53.2244968  35.4340196   0.8081976  87.5846004
  36.3800645   0.9349304  87.5126839  35.3383780  -0.0231337  88.0493259
 101.2642193  62.5429392  52.1935749 100.6678391  63.0140829  51.6116905
 101.2135792  61.6325331  51.9023275  93.5951328   7.5200033  43.3522940
  94.5440674   7.4336368  43.4434271  93.2945824   6.6386104  43.1308222
  58.0762148  11.8973780  22.5472450  58.6780977  12.1734405  23.2384467
  58.4633160  11.0940456  22.1993327  81.5506268  40.3557110  15.8070767
  81.6129494  41.0666180  15.1691413  82.4559689  40.0766706  15.9439385
  68.6812401  83.8923550  43.0369854  68.3470488  83.4319878  43.8068008
  69.5479298  83.5139179  42.8891087  37.8774118  38.1326461   1.6128652
  38.2948613  38.9410996   1.3155942  37.0668554  38.4217191   2.0319897
  36.7993546  96.0314941  38.0257201  36.7312407  96.6674709  37.3135853
  36.7697692  96.5605068  38.8229084  98.7692928  28.6559510  18.2807088
  98.8529110  28.4863043  17.3423803  97.9285717  29.1049814  18.3689368
  68.9950275 103.6874008  36.6919231  69.7133636 104.2654228  36.9490600
  69.2619371 102.8216362  37.0008659  96.8623543  88.1123829  70.0718546
  97.1426773  88.5334206  69.2592192  96.2708282  87.4151516  69.7886801
  18.7108243   2.8218737  67.4352217  19.6289444   2.8792760  67.1706581
  18.7049627   2.1755005  68.1411934  71.0164881  99.0629482  63.3133650
  70.4395056  98.3299255  63.5278320  70.4357147  99.7211933  62.9317379
  94.3764877  23.8704157  57.3882437  95.2302647  24.2733932  57.2304106
  93.8177776  24.2117238  56.6899729  80.4324150  19.9439371  26.7092896
  79.5359325  20.2433467  26.5579510  80.7892036  20.5666494  27.3426652
  77.6449728   3.7183449  66.0387611  76.8528557   3.9576817  65.5576134
  78.3585548   3.8830122  65.4223824  98.9481354   7.8224862  27.7716017
  99.8427963   7.6702595  28.0759764  98.6087894   8.5010749  28.3552074
  41.7594957 101.3727379  80.0927162  42.0361328 101.5649033  79.1967440
  42.4441576 100.7992077  80.4369831  88.4348106  15.2177751  87.3369789
  87.8500080  14.4840789  87.5265217  89.0079594  14.8939025  86.6421127
  41.4261341  25.3168106  51.7609215  42.1852779  25.8550668  51.5368414
  41.6819143  24.8648810  52.5650167 103.6550999  29.8494005  39.3160248
 104.0775490  28.9935708  39.2430115 103.4534645  29.9382877  40.2475166
  12.6608312   1.5020730  66.0673571  13.4541106   1.1389871  65.6735182
  12.1207571   1.7627664  65.3213072  69.4954205  89.1200066  42.3089361
  69.3243122  88.2436848  41.9639587  69.8188496  89.6148396  41.5560961
  99.5432663  16.2928891  18.7861180  99.8210049  16.1623991  19.6927953
 100.1533985  16.9442284  18.4401000 109.5585155   0.7455611  84.3982220
 109.9180698   0.5873951  85.2711201 110.1950264   1.3240848  83.9782238
  96.7775154  36.7138457  50.5369949  96.2163258  37.4619794  50.3330564
  96.1976528  36.0924578  50.9772921   8.3212656  43.2215786  21.8428898
   8.1962496  44.0730190  22.2619939   8.1456065  42.5853062  22.5360966
 111.7587471  26.8960023  42.9282379 110.9317970  26.9812179  42.4537563
 112.2871876  27.6333809  42.6228619  90.4353428  38.4838653  48.6760187
  91.1645985  37.9495454  48.9905405  90.1835251  38.0802989  47.8453827
  61.4634657  63.1562996  89.1397476  60.5167007  63.0879927  89.2630291
  61.7830563  63.5490465  89.9520588  80.3203678  92.3287678  80.2342796
  80.9108543  91.6859436  79.8414230  80.2525330  92.0627022  81.1512566
  68.2695198 103.0303955  87.4074459  68.3324575 103.1537151  86.4603138
  67.7683210 103.7858486  87.7145672  21.5107393  20.6679440  10.8958089
  20.8749127  20.1981783  11.4355111  21.7284727  20.0547504  10.1937997
  17.2431886  52.4301958  16.1321139  16.4437509  52.9447412  16.0208893
  17.1126294  51.9597626  16.9554472  92.1181297  85.6731701  50.3159094
  92.4921989  86.2199783  49.6250439  92.5482655  84.8247528  50.2091455
  40.3860617  34.0045023  45.4370785  39.4334412  33.9307833  45.3794909
  40.5421734  34.9218655  45.6613731 111.4781857  21.0986423  53.0093813
 111.0950756  21.6850972  52.3570585 111.7278671  21.6745996  53.7319899
   8.0412275   3.3462471  43.9619780   7.5041276   2.7263400  44.4554090
   7.4450511   3.7128463  43.3089781 105.5792713  10.0394607  51.9615698
 104.7418499   9.9282420  52.4116611 105.8793163   9.1468608  51.7898989
   1.7861190   0.1918763  29.7240663   1.8655179   1.1190740  29.9481916
   1.4421403  -0.2178028  30.5178380  34.2417312  48.9913607  51.4084101
  33.3944702  48.5630417  51.2862444  34.0229344  49.8751879  51.7037249
  13.7584805  42.1187830  35.0783443  12.8590417  41.9161558  35.3356051
  13.7345481  42.1419048  34.1217232  47.4967289  22.0658660  51.5031815
  47.0779800  22.4875641  52.2535467  46.8175125  21.4995432  51.1368752
  44.8258591  39.3883204  50.8093643  45.2974129  40.1946878  51.0182714
  45.5059433  38.7826824  50.5145454   6.2898660  12.6246142  88.7855911
   6.1747599  12.3710954  87.8697777   6.4927483  11.8053973  89.2372036
  11.4447272  52.8720188  25.6589580  11.2496173  53.5396767  26.3165259
  11.5742993  52.0692158  26.1638784  64.1033697  93.0311775  67.1675158
  63.7579584  92.3415375  67.7343750  64.7149515  92.5793648  66.5860748
 104.7127438  33.0035019  24.4119048 104.0437031  32.7461743  23.7775564
 105.4188538  32.3696852  24.2857075  17.8757143   7.2838509  27.6632857
  18.3894372   6.5610415  27.3029160  18.3541131   8.0709314  27.4027658
  92.8504944  96.1519527   9.4893885  92.9891968  96.9842148   9.0373558
  92.1718121  96.3414669  10.1372313  91.8563080  23.4131193  22.1733236
  92.1084785  22.4957585  22.2786379  92.4948597  23.8985276  22.6956844
   1.3746873  13.7270296  14.2680180   1.7566028  13.8682687  15.1342881
   2.1123835  13.4538233  13.7226796  35.6474090  38.8446450  52.7513266
  35.4926348  39.2524719  51.8992949  36.1410522  39.4999528  53.2444000
  80.7521534 104.4122124  35.3895974  80.3432178 104.6946621  36.2076569
  81.6895103 104.3976116  35.5829620  65.2825642  73.3989382  12.2162223
  65.4705477  74.3223524  12.0482922  64.3698549  73.3888865  12.5044763
 105.9978104   9.3494034  29.9963284 106.0055161   9.0226722  29.0966511
 106.9180679   9.3475586  30.2597046  96.8523502  19.5632696  44.3799114
  96.8687820  18.7224030  43.9228487  97.4049568  19.4282722  45.1497364
  90.8048439  44.6872997  59.3087387  91.0813141  44.7532940  60.2227640
  91.1004162  43.8202429  59.0311098 108.5544586   1.1331635  37.6958942
 109.2355061   1.7596114  37.4510193 107.7771950   1.4263207  37.2203469
  97.1534634  38.6690426  42.3776627  97.2990608  38.1695867  43.1811428
  96.7245388  39.4732809  42.6699829 103.7166119  27.9753709  70.8138657
 102.9245472  28.0816841  70.2870274 104.4133377  28.3544612  70.2780485
  12.3579764   2.3882751  24.9579382  12.3871350   2.3592216  25.9142518
  11.5702569   2.8938308  24.7575808  30.2242732  41.8001461  10.0592744
  30.7081628  41.1751080   9.5194501  30.5624866  41.6643476  10.9443736
  27.6000762  22.1927309  43.8124752  27.2744846  23.0662608  44.0296507
  26.8101788  21.6720510  43.6669111  65.9710693  99.8889256  52.2343969
  65.3932190  99.6383190  52.9551697  65.4292727  99.7984409  51.4504957
  94.9842834  47.9239655  24.1216207  94.4571972  47.2577477  23.6805201
  94.3596554  48.3998871  24.6689487 114.0071774  11.0233629  66.8973923
 113.2918930  10.5037344  66.5305376 113.6689568  11.3383722  67.7356052
  92.7495575  95.0625134  77.9595852  91.8531799  95.3982830  77.9590273
  92.7141666  94.2861938  78.5184383 112.6138306  12.5062549  42.3546982
 113.1432724  11.7088127  42.3525000 111.7139339  12.1965671  42.2521687
 103.2936573  37.8701901  70.6486368 102.8685284  37.9256082  69.7928190
 104.1237068  38.3329463  70.5341530  32.8875041  25.9512377  57.8315353
  33.5705280  25.2996302  57.6730490  33.1788874  26.7255902  57.3501778
 110.8756828  19.1408896  19.1686594 110.9267807  20.0808930  18.9954102
 109.9900055  19.0073562  19.5062459  11.1407125  34.7296381  34.1347003
  10.9666717  34.0704226  33.4628534  11.5613401  34.2435384  34.8439336
  77.4206400 101.6704369  49.3321276  78.1231165 102.0600224  48.8115692
  76.6213226 101.8746471  48.8467264   1.7348191   1.1921281  58.1882763
   1.5838857   0.4746024  58.8035917   2.3179394   1.7900310  58.6559486
   9.1943187  56.7626381  24.0802002   8.5663068  56.4671373  24.7393751
   9.7293460  55.9905910  23.8960314   8.6125201  17.0089412  17.1455634
   7.9049230  16.7590213  16.5513599   8.1654888  17.3453748  17.9222274
   6.8809813  13.4876359  55.1524973   7.2750300  12.9768646  55.8596563
   7.5445551  14.1407084  54.9302435   1.4611074  47.5961876  35.8897877
   1.3047449  48.4701633  35.5320907   2.1323091  47.2207212  35.3199244
  54.8689413  99.3019772  47.8091478  54.6286011  99.4649029  48.7212467
  55.4314423 100.0399590  47.5741863  17.5867569  10.5747736  36.4775229
  16.8294120  11.1523235  36.5728903  18.1726778  10.8283806  37.1906924
  69.0901518  87.7335548  27.5450730  68.5967302  86.9237900  27.6756978
  68.4232521  88.4199142  27.5256896  82.4507141   6.2838471  18.2817483
  83.0884457   5.6668085  18.6406171  82.9485607   7.0896524  18.1436944
   2.8217253  44.9134493  13.1890178   2.4555409  44.0525723  13.3915782
   3.6500332  44.9401331  13.6680019  53.1795979 104.2168617  33.2517147
  53.4636784 104.2863274  32.3402834  53.1468773 103.2753754  33.4212947
  94.9008751  33.7490559  24.5459700  94.1228008  34.2847681  24.7004104
  94.6001816  32.8487515  24.6695161   2.5226480  52.5080347  64.0374184
   2.2370389  51.9497967  63.3142090   3.4745210  52.4087572  64.0551376
  34.8583341   5.9852189  31.6871023  34.7064877   6.1491668  32.6178527
  33.9954472   6.0788906  31.2835121  22.6644826  56.6668367  51.2475538
  22.8375673  57.1621704  52.0481300  23.3600116  56.9329357  50.6461716
 112.1663380  23.5976815  55.3563309 112.6480007  23.3307815  56.1392736
 111.2584782  23.3559680  55.5396223 112.5205326  50.3775692  37.8575635
 112.3470402  50.2671385  38.7924099 112.3123264  49.5260572  37.4730992
 109.5485401  64.6820545  47.6924515 110.0183487  65.5055237  47.8243923
 109.4134140  64.6323681  46.7461395   7.2586846  51.8694782  15.6350887
   6.7100620  52.5055599  16.0940468   6.7162329  51.0829496  15.5772078
  50.4566526  34.9781060  16.5949869  50.7818365  35.8025694  16.2333977
  49.5331192  35.1463556  16.7821002  18.5510814  32.1430469  36.5446901
  18.4465349  33.0134416  36.1603522  18.2101107  32.2316933  37.4346972
   4.9797133  58.3603716  61.9758606   4.2208079  57.9108334  62.3476219
   5.7181579  58.0635262  62.5076628   3.1444606  18.5863173  24.6310377
   3.4653121  17.6999545  24.4647646   2.4222800  18.6994755  24.0130711
   9.9971062   3.5122687  26.7904592   9.1874510   3.1694260  27.1688104
   9.9286884   3.3122879  25.8568859  81.8126011  14.5849204  17.5039470
  81.2013245  14.0353298  17.0135117  81.5742779  14.4488227  18.4209609
  30.4884171  14.5531344  32.3704410  29.8093462  14.1827106  32.9342508
  31.2770176  14.5521343  32.9129720  40.6132221  29.0290022  38.5140038
  41.5165043  28.7123489  38.5206294  40.6204414  29.7858644  39.0999556
  97.1354294  93.7948895  50.4721498  97.2531319  93.6895657  51.4162302
  98.0060101  93.6440372  50.1039457  15.5581212  58.1260061  54.7298813
  14.6045208  58.0828142  54.6590805  15.7216728  58.3052349  55.6558180
   9.4398391  51.2934589  28.2225633   9.4439298  52.2301960  28.0257249
  10.3624189  51.0708809  28.3472037 106.8640137  24.2392731  61.9968987
 107.3675823  24.0267467  61.2111044 106.5985203  25.1504111  61.8720913
  19.4011354  10.4115307  30.6320786  19.5691466  10.9144044  29.8351336
  20.1618981  10.5817068  31.1875176 108.0936432 106.5886021  22.7497840
 108.2566547 106.3174629  23.6531901 107.1885872 106.9002056  22.7528381
  28.5773420   1.1940624  57.9508591  28.7400913   1.0392594  58.8813353
  28.8742018   2.0917910  57.8018999  16.2865627  66.7985582  27.4745321
  16.2524819  67.0114088  26.5419197  15.3724897  66.8171453  27.7580047
  82.0112133 105.8245850  48.1642008  82.2557449 106.7498112  48.1444645
  81.5867424 105.7071114  49.0140533  16.6520178  12.8661263  54.2988682
  16.0304618  13.4880257  53.9205265  16.3223231  12.7058971  55.1830959
  41.9462633  54.5202446  53.6769772  41.6346025  54.1527271  54.5040369
  42.7118635  55.0409937  53.9196825   6.9718969  32.8701758  70.1043653
   7.1999890  32.0212865  69.7254276   7.7752948  33.1645775  70.5334473
  10.4762065  53.3419895  56.8194389  10.0473952  53.5971880  56.0026026
  10.5501783  52.3892832  56.7636299   7.7391225  60.0617075  68.3129883
   8.0067533  60.6980944  67.6499510   6.7983985  60.2050161  68.4165907
  24.3067765  30.0480533  61.3108921  23.7821484  30.6534505  61.8348122
  23.6761379  29.4074297  60.9820652  42.3961258  47.0305347  13.3467853
  41.7830086  47.6289558  12.9199243  41.8381405  46.3826847  13.7771082
  89.2740917 104.8689938  42.8160381  88.7550545 104.0801907  42.6590872
  88.7643814 105.5743408  42.4174166  82.5331306  25.5704832  21.3884425
  82.2502899  26.1853862  22.0652914  83.4877110  25.6411576  21.3844156
   1.6603184  50.3854942  58.5458517   1.3458940  50.9300041  57.8241348
   1.0181408  49.6785784  58.6099386  21.5299010  43.0939436  45.3335905
  20.8337164  42.9944181  44.6842432  21.0743594  43.3484793  46.1360407
   3.8746151  56.3773108  12.0286393   4.7904944  56.6231823  12.1588075
   3.5889038  56.0563326  12.8839612  37.7892566  51.0814810  45.3193426
  38.4716415  50.8951330  45.9642172  37.6622820  52.0287657  45.3719234
   0.4970010  42.3840237  74.7218895  -0.3016303  41.9282103  74.4560766
   0.6332125  43.0444908  74.0425825   9.7685480  67.2898293  30.7512641
  10.1763022  66.4837217  31.0677481  10.4964066  67.8069496  30.4062462
  58.8789606  36.5648460  29.9975848  58.4572649  35.7220483  30.1651978
  58.1525421  37.1745825  29.8680806  87.2719955  35.6069279  32.4216080
  88.1979275  35.6824875  32.6521873  87.1516132  36.2313008  31.7061377
   5.4434609  48.9639664  26.2875676   5.5935246  49.8816967  26.5144753
   6.2905866  48.5409546  26.4278269  51.9258690  95.8083057  92.4762344
  51.9105577  95.4810715  91.5768337  51.1415434  96.3524818  92.5465012
   3.9467302  15.6114662  34.4739151   3.3658728  16.0294759  35.1096058
   4.7968486  16.0276866  34.6163630  12.3441839  15.1762974  64.3395424
  11.8761241  14.6538079  63.6882687  11.6549015  15.6406474  64.8144102
 109.7057056  28.0337834  56.7370653 109.9831390  28.1142211  57.6496410
 110.2993011  27.3828030  56.3627625  10.7404578  34.5360518  49.5848179
  11.5460587  34.3907785  49.0886974  10.8530366  34.0175986  50.3815413
  31.3149238  54.4007349  39.9998927  32.0215368  54.5348454  39.3682694
  31.5300846  53.5718632  40.4275751   5.5503672  42.4034739  62.2370148
   5.9010530  41.5395308  62.0205593   6.0044628  42.6513863  63.0423546
  12.3690057  30.9681845  39.7312903  12.8733861  30.5529094  40.4308462
  11.5895009  30.4201698  39.6402740  60.7171822  42.1771097  20.9660888
  61.2343788  42.3836946  20.1875901  60.2406788  41.3804531  20.7326126
  13.7073278  33.5491943  68.0800152  13.2119823  33.4850931  68.8965654
  13.9483953  32.6459146  67.8745794  28.2801914  25.2710986  64.6552610
  28.1962752  26.0773063  65.1643991  28.0146575  25.5184531  63.7695217
 105.3870964  30.2187371  44.3765354 105.2966595  29.5350718  45.0403547
 106.3319969  30.3443718  44.2892933   3.8601321  47.0366144  43.2749510
   4.1711602  46.8030739  42.4003363   4.5207113  46.6781378  43.8677120
  89.0258217   1.0156729  79.7651672  89.3375015   1.5382901  80.5040550
  89.7912693   0.9222881  79.1980600  11.9805467  16.6055930  43.2062864
  11.4349568  15.9771442  42.7334070  12.3657477  17.1516585  42.5209665
 100.7930279  87.3127937  46.6995287 100.8654022  86.8262196  45.8784056
 100.5492687  86.6526699  47.3484182  20.4914212  80.6441879  19.2358816
  21.0541487  81.1585426  19.8146760  20.9882522  80.5719757  18.4209108
  34.2622709  51.4284563  37.6863360  33.7755966  51.0113382  36.9754267
  34.5415354  52.2693682  37.3242474  96.6900349  35.6990337  23.8515449
  96.1455154  34.9653244  24.1368508  97.0817184  35.4015040  23.0303907
  17.8387237  63.1481457  49.4239044  18.6385119  62.6543474  49.6048307
  17.7726161  63.1554842  48.4690189   0.2469338   3.8663417  21.0002255
   0.5393939   3.6369368  20.1181412   1.0396350   4.1665807  21.4448738
   2.7387086  82.7352142  27.1146441   1.8648814  82.5156975  26.7914200
   2.5909382  83.0600357  28.0028367  15.7142758  71.3110256  40.0219727
  16.2631321  72.0465946  39.7500753  16.1930609  70.9102774  40.7475042
  13.6478889  44.8876143  17.0191765  13.1696332  44.6279335  16.2317312
  14.0292859  45.7373476  16.7984581 106.1025620  17.0592487  40.0225306
 105.4123974  16.8742156  39.3856168 105.6428719  17.1345878  40.8587313
  18.5920334  59.2301702  43.7744904  19.2166770  59.7016287  43.2233334
  19.0933084  58.9911795  44.5541334  24.5076418  10.6350505  44.3955755
  24.5544910  11.4485908  44.8977613  23.5816598  10.3935134  44.4167233
  16.6217780  33.4990263  20.8929253  15.8435857  33.0028653  20.6390047
  17.1752703  32.8618789  21.3445020 106.6869736  55.2636909  56.7351294
 106.9333553  55.5294800  57.6210642 106.0308170  54.5788479  56.8642902
 103.2684422  53.7766314  68.2296181 102.3155785  53.7951899  68.3187294
 103.4955502  54.6475887  67.9039145  16.1129582  49.4588661  33.0296445
  16.3966835  50.3679562  33.1260276  16.7799139  49.0575886  32.4725294
  18.9813697  36.3869882  75.8840561  19.1852415  36.7546797  75.0241327
  18.4472311  37.0570850  76.3105536   0.3374971  50.4716063  34.1748977
  -0.4558436  50.0386953  33.8595724   1.0042088  50.2538538  33.5235071
  98.6118412  44.5432472  31.4554358  97.7808285  44.8273373  31.8361521
  98.3749676  44.1956186  30.5956197 114.0014400  40.8793592  77.1251583
 113.2213874  40.3297853  77.0495224 113.9494819  41.4733315  76.3763380
 105.9033775  83.1203461  12.2685313 106.3029671  82.7010250  11.5064728
 105.9902954  84.0583611  12.0988095  42.9380894  75.3648806  51.5967321
  43.4197903  75.6854343  50.8342075  43.1861496  74.4430208  51.6665602
  14.9834585  19.3526542  24.8006129  15.6259453  19.0747726  25.4534698
  15.5091965  19.6342957  24.0519404 105.0548267  41.9659472  57.5123262
 105.3728485  42.8634501  57.4143791 105.5289173  41.6253042  58.2709026
  90.6138134  21.2059593  63.0175972  90.6364632  21.8589854  62.3181152
  89.9737358  21.5465045  63.6425495  19.7055721  20.0110316  16.1946118
  18.9643633  19.4073272  16.1457872  19.6507800  20.5233049  15.3878868
  90.6403923  59.7754240  23.4224653  91.1327362  59.3079901  24.0972495
  90.8315849  60.6994438  23.5833073   2.1749884  24.7440720  31.0820293
   2.8455672  24.2420769  30.6188297   2.3197354  25.6490374  30.8057714
   7.2137231  30.7324457  46.3233852   7.8094512  31.0582066  46.9980860
   7.7895868  30.3704286  45.6499195  98.2691669  59.4954252  46.7326307
  98.9741993  60.0449371  46.3902760  97.5415993  60.1007605  46.8755865
  84.1913223  51.5755939  66.3738728  84.6376801  50.8584356  66.8240690
  83.2922554  51.2662649  66.2632847  33.0332017  48.8338804  77.9888439
  33.1470942  48.7204075  77.0452404  33.8736749  49.1773367  78.2919502
  15.8594131   6.4408314  25.4090071  16.1231530   5.8033103  26.0725141
  16.6527343   6.9473046  25.2347755   1.3388357  41.4900208  65.2351427
   1.2272365  42.4385405  65.2990627   1.7484425  41.3540840  64.3807554
  17.0287764  37.2097254  64.5495462  17.2678149  36.2862039  64.6282721
  16.1565185  37.1986127  64.1554976  24.8166180  48.6745024  49.5273685
  25.1136184  47.8708410  49.1005754  23.9658761  48.8571930  49.1285038
  15.6056595  72.9563713  47.6977539  15.5108178  72.3401356  48.4240389
  15.1009858  72.5654602  46.9845057   1.5807714  10.3623855  36.3929963
   1.9876108  11.2277436  36.4362431   1.2018318  10.3194845  35.5150461
 108.5749626  13.1199360  64.6457148 109.1107655  12.4319363  64.2509842
 107.7018070  12.7337813  64.7143698 103.0547619  41.8229294  39.9038434
 102.6644611  41.5162420  39.0854073 102.3956013  41.6300726  40.5705786
  89.4859886 103.3622169  28.6841655  89.4536114 102.4751091  28.3260727
  88.6152458 103.7212944  28.5135722  11.6105509  33.1460023  36.5493989
  11.4848924  33.1045127  37.4974060  12.4520290  32.7148485  36.4002323
 111.4435768  33.1008387  46.9119930 112.2170353  32.9956770  46.3579750
 111.7257118  32.8018880  47.7764320  26.3001227  44.1973686  54.3448734
  27.1589351  43.9620018  54.6959782  26.3290739  43.9138937  53.4310675
  36.0762882  59.5098686  27.2314048  35.2151322  59.2339849  27.5452971
  36.2670732  60.3072977  27.7253032  89.3362141  33.1044173  55.9920549
  89.6764469  33.8574076  55.5088568  88.6427498  32.7543855  55.4327583
  96.8284321  46.5575647  71.1487818  97.6995564  46.3654280  71.4958525
  96.2638474  46.5862989  71.9212103   8.8262969  50.2174330  45.0980663
   8.7910748  51.0613537  44.6477509   7.9680163  49.8248291  44.9385405
  99.3044853  29.0838695  61.7576456  99.2416191  29.7184038  61.0437489
  99.2019463  29.6069169  62.5527143   9.0531647  39.9320221  43.7240219
   8.5588241  40.5549908  44.2567205   9.4585431  40.4683304  43.0426455
  22.0724392  40.6458855  37.3208284  22.5050235  40.6389046  38.1746745
  21.7815256  39.7430611  37.1923304   5.1063555  37.2699952  53.9317322
   4.8690680  37.2231936  53.0055952   5.9918123  37.6335788  53.9340401
   4.3012139  65.4910946  51.8775606   3.7753576  66.2473631  52.1378660
   5.0866711  65.5467749  52.4217939 100.1301956  30.9685564  47.1442366
 100.7734585  30.6272316  46.5229893 100.6070995  31.0330009  47.9716635
  88.5392761  39.0644288  53.3360243  88.7261868  39.5535994  54.1372776
  89.2156315  38.3878088  53.3052015 103.5236835  68.7202883  52.8791094
 103.7455273  69.3340826  53.5793018 103.9698124  69.0669632  52.1064377
  19.5728183  19.0868652  42.8458834  20.1025271  19.6748209  42.3074150
  20.0563836  19.0149498  43.6688185   0.1800968  28.9219499  63.5429716
   0.2892010  29.5955181  62.8716803   1.0696435  28.6190367  63.7251282
   3.3831820  40.7525682  52.9276943   3.9048910  40.5215025  52.1591473
   3.9876565  40.6601858  53.6641073   4.9283230  31.5779281  34.3265653
   4.1308692  31.2028337  33.9529276   5.6335807  31.0253644  33.9896417
   0.1909113  18.8015473  59.0488195   0.2656698  17.9576194  59.4942760
  -0.2912855  18.6063719  58.2453108  21.7911553  29.1543818  31.3741589
  21.4911866  30.0190067  31.0936666  22.5966716  29.0078211  30.8782816
  45.8390188  43.7140560  57.4376535  46.4592266  43.6247301  58.1612539
  46.2440395  44.3543959  56.8527174  92.0992279  53.7794733   1.8926775
  91.9780254  53.6212921   0.9564506  91.2127209  53.9054298   2.2310364
  17.2484434  48.0724430  49.1188478  16.5423119  48.5040188  48.6378574
  16.8175137  47.3565531  49.5857859  66.0337305  39.0769506  34.1335630
  65.8920336  38.1667542  33.8733816  65.8436441  39.5840406  33.3442879
 109.4531059  94.8017120  59.6069002 110.3218555  95.0194263  59.2691231
 109.4916534  93.8607693  59.7782946   4.8700920  53.3090067  16.5631104
   4.1449186  52.7131891  16.7511475   5.1959056  53.5691643  17.4247336
  70.2334070  29.0523648  45.1378250  69.9561977  29.8138285  45.6472921
  70.8602571  28.6011720  45.7032585  96.0528755  14.9794865  40.2229977
  95.7995605  15.5135918  39.4701433  95.7427692  14.0998483  40.0078154
   3.7350890  32.3746371  22.7833962   4.5419595  31.8601871  22.8064466
   3.0510819  31.7381573  22.5754094   3.4288067   7.5560546  46.2892199
   3.6583513   8.4835583  46.3464785   2.9692879   7.3720217  47.1084929
  29.1220927  37.7161503  32.0093656  28.4783602  38.4080696  31.8574023
  28.6093760  36.9821477  32.3478818  20.5466175  55.4050112  35.6295562
  20.2678561  55.4265118  36.5450144  20.3230643  56.2718582  35.2906919
  12.2443342  38.8393354  25.6605053  12.4262977  38.7569046  24.7243810
  13.0743349  38.6236739  26.0857344  12.1451962   9.8534137  28.1187963
  12.9133177   9.6715242  27.5773764  11.4710021  10.1231301  27.4951386
  45.0713253  29.5434594  36.9492722  44.7987556  30.3978372  37.2838998
  44.7876883  28.9220190  37.6197886  76.5029860 106.4861965  60.0895929
  76.1502123 107.2690773  60.5125332  76.4331102 105.8021355  60.7554770
  19.1085827  61.2500191  27.7519107  19.7835898  60.8270788  27.2211361
  18.6353946  61.8096352  27.1361542  66.8822432  98.6521244  35.0948191
  66.5904379  97.7615070  34.9001980  67.4313498  98.8926983  34.3486023
 107.4222660  35.2922726  18.4652948 106.4877701  35.3427744  18.6663032
 107.6928234  36.2036204  18.3535838 110.4540539  47.4375868  34.2380404
 110.9186363  48.0534935  33.6714268 109.5275784  47.6208210  34.0821791
  88.3850384  94.0225220  71.6291094  88.7531853  94.7810841  71.1760187
  89.0603256  93.7682343  72.2580528  31.4100528  21.6004562  51.5652943
  32.2010112  21.1255860  51.8204689  30.9494948  21.7589140  52.3893118
  17.9888487  41.3429594  29.0980005  17.9693246  42.1651363  28.6082220
  18.5451853  40.7657528  28.5749793 108.3358669  50.4249716  45.4958487
 108.0139256  51.0551834  46.1403799 108.6953926  50.9647989  44.7918940
  95.3937149  58.3491564  21.6717386  94.9735260  57.6175594  21.2195873
  95.8549786  58.8246298  20.9807992 113.2935333  16.8560660  42.5344944
 112.4203205  16.9590831  42.9128075 113.5731411  15.9835207  42.8114700
 111.6059303  47.2465658  40.3175163 112.2082520  46.5056562  40.2504492
 112.1247959  47.9410744  40.7233095   0.9460600  16.7900479  18.8771391
   0.1976963  16.5492654  18.3310544   0.7175816  16.4716828  19.7504508
  39.3078184  38.4793329  90.8761692  39.3071628  37.6288319  90.4369926
  38.6423063  38.9883876  90.4133701 104.3961430  56.7256880  62.8491497
 105.2641773  56.7825174  63.2485342 103.8104343  56.5190840  63.5775042
  79.2697859  29.2785382  27.2665644  79.1947937  29.2534709  26.3126349
  79.2354679  30.2098203  27.4851203 108.8271999  50.8650064  18.4213877
 109.5443821  51.4783096  18.2609773 109.2511654  50.0082207  18.4703863
   7.2996330  42.2274160  41.7169285   8.1362379  42.6423502  41.5068007
   7.1524662  42.4385071  42.6388884  33.6570501  72.2177792  57.0844650
  33.6106062  71.3478470  56.6878605  33.1105042  72.7668095  56.5222502
  26.4402223  46.8096161  45.1414776  26.2584066  47.3821545  44.3962479
  26.7431116  45.9918070  44.7469187  17.7352571  29.9003816  30.0210524
  17.8839707  29.3113780  29.2813301  17.5581467  29.3175793  30.7594323
  23.0395246  26.9272041  52.8836250  22.6272368  26.7880416  52.0310497
  23.2221150  26.0454059  53.2081652  17.2645938  32.5101948  39.6531153
  16.4864564  31.9812560  39.4771624  17.4848521  32.3165035  40.5642700
  29.0667915  54.4087267  60.1451015  28.7041497  55.2171183  60.5073452
  28.3349323  53.7918854  60.1560974   6.1467928  34.9904037  35.1789474
   5.3281575  34.5380187  34.9754333   6.5521789  34.4562936  35.8620429
  38.2943201  32.2159934  48.4820271  37.8491211  31.3941526  48.6884451
  39.0030599  31.9625020  47.8907061  71.3558292  67.1661425  86.3726139
  72.1324682  67.3073816  86.9140148  70.8068466  66.5772057  86.8903065
   7.3835099  49.2257071  79.1082621   7.3041171  50.1193953  79.4418049
   7.7192968  48.7222195  79.8498678 100.6388760  22.5461555  59.1815424
 100.9354496  21.6396117  59.1011906 100.5818748  22.8603840  58.2791853
  24.7464490  50.5282211  54.9318457  24.8582292  50.0098133  54.1349840
  25.0392866  49.9503994  55.6365442  16.2072706  41.1431742  61.5328312
  15.5962706  41.8303061  61.2668133  15.8848417  40.8531809  62.3861599
 110.9540653   0.8851053  50.1127434 111.3047886   0.7187727  49.2377806
 111.0527897   1.8293396  50.2348375  22.2821760  27.1058393  67.2092772
  21.9582272  27.9319596  66.8503761  23.0199671  26.8728042  66.6457272
  17.6332736  65.3912449  54.4833231  18.3924353  65.2982092  55.0588703
  18.0050802  65.4418373  53.6027384  38.7660098  45.2055073  42.4096823
  38.1603909  44.7434235  41.8300819  39.6226740  44.8270798  42.2118044
  30.0996661  57.4200630  46.0466909  30.9668112  57.3119402  46.4373255
  30.2140522  57.1577358  45.1332760  27.6894999  51.4017439  20.5695987
  27.0906878  51.8597174  21.1594462  27.1243334  50.8268833  20.0535035
  19.3481612  48.8013411  28.9378810  19.8773479  48.9143658  29.7274494
  19.6018279  49.5312786  28.3730149  80.7123852 105.7570839  28.5552263
  80.8014965 105.7746506  29.5081067  81.6121674 105.7856178  28.2299519
  13.8551056  28.9468884  15.6354809  13.2347810  28.9823413  16.3636112
  13.3047080  28.9300442  14.8525310  77.6444912  55.9437799  88.7414646
  78.3045387  55.8320141  88.0573082  77.7016211  56.8688726  88.9805603
  27.1092248  16.8551695  67.1955824  27.4217582  17.3793650  66.4581728
  26.6366148  17.4773943  67.7484894 112.0320988  12.9411793  24.0885830
 111.5529728  13.6896157  23.7328911 111.4586353  12.5919747  24.7708082
  93.3217716  70.6960154  48.5483360  93.2358646  71.6410398  48.6739540
  92.8073406  70.5111027  47.7625799  14.9381137   1.5990922  51.4828920
  15.0671411   2.0311216  50.6385374  15.0328290   0.6660236  51.2914658
   7.9378450  10.9034824  33.8141513   6.9895875  10.9967375  33.7228107
   8.0581814  10.5192506  34.6825504   5.8004272  21.2154627  42.1318007
   5.2502275  21.9986558  42.1426773   5.3868043  20.6234384  42.7600145
 111.0987759  33.1439281  37.9203033 110.4171467  33.7223911  38.2623363
 111.9044018  33.6562467  37.9890823  34.2156196  38.5585213  55.0097418
  34.5782733  38.5127234  54.1250849  33.3264661  38.8911128  54.8871756
  34.3400192  44.6040487  21.1159682  33.8522243  45.3982830  20.8980608
  33.7332559  44.0885019  21.6472673   2.8376016  30.6983852  56.7745543
   2.4321733  30.3274179  57.5582933   3.4726423  30.0377846  56.4978552
  83.2794094 102.3901939  78.2103539  83.3625793 103.2754135  77.8558302
  82.7010250 101.9392109  77.5952673   0.1121564  44.7426939  33.0627704
  -0.3970712  44.6555471  33.8685751   0.3828329  43.8489294  32.8526497
  55.5131340  85.7972527   3.5668382  54.5854950  85.7173538   3.7889588
  55.8993673  84.9683189   3.8495591   4.0938082  36.1504054  45.5941963
   4.1484815  37.0844769  45.7960749   3.7974444  35.7460761  46.4096212
   9.3330491  73.7082481  42.8790951   9.3414158  73.3161926  43.7522793
   8.6175585  73.2641745  42.4240065  13.9888346  41.1440897  53.5674429
  14.0826941  41.9998550  53.1490088  13.3062959  40.7035208  53.0612135
  17.1267462  50.6659079  59.2894268  17.2962010  50.9093523  58.3793449
  17.8425038  51.0674858  59.7820282 113.2279873  65.0394297  71.3326693
 113.5690784  64.1626883  71.1560059 112.4695969  65.1223612  70.7545710
   3.3220568  68.8963318  77.5837612   3.7818202  69.2995071  78.3201694
   3.2327297  69.6011686  76.9423151  44.5866680  28.0138206  52.2403717
  43.6708736  27.9690647  51.9655037  45.0850296  27.8320098  51.4436245
   1.3674454  59.5428514  51.2374687   1.1440250  60.3499651  51.7010307
   0.5365928  59.0741491  51.1585283  28.1832147  75.2323198  48.6771631
  28.4194875  76.0879612  49.0353298  27.3570609  75.0123215  49.1076326
  35.9458899  61.4250278  59.4056606  36.7984295  60.9914732  59.3677282
  35.3281975  60.7216978  59.6056890  20.6294775  67.6043701  23.2010865
  20.7607174  66.6562128  23.1993127  20.9264493  67.8888893  22.3367429
  82.1250153  24.5574641  82.1144867  82.6638794  25.1308227  82.6595592
  82.7191162  23.8580799  81.8422127 108.2121658  28.7119770  59.8981857
 108.6173439  28.9148784  59.0550375 108.1867027  29.5502472  60.3595877
  18.0847788  41.0856771  67.7761602  17.8941095  40.9024286  68.6961031
  19.0404320  41.0748291  67.7228594 108.1991577  47.2167730   7.5749147
 107.9828453  47.7798176   6.8316633 108.7913513  47.7444267   8.1107426
  29.8732042   9.9664688  11.8882966  29.4387746  10.5067945  12.5482583
  30.7490611   9.8133779  12.2427964   4.4990516   6.5002793  25.5481458
   3.9116743   7.0787168  26.0345936   4.2986825   6.6739416  24.6284056
  48.8930368  39.6462345  34.1362095  49.1913176  39.9492645  33.2786345
  49.5967102  39.8941374  34.7358942  14.8660111  82.3331928  24.7326994
  15.3288639  82.4493599  23.9029384  14.7783995  81.3847256  24.8273444
  36.9722414  33.0168128  57.8301382  36.6180372  33.0345154  56.9410610
  36.8666267  32.1081662  58.1119871  45.5925274  65.1875114  55.0594568
  44.8627853  64.8700809  54.5275354  46.3330221  64.6381092  54.8024416
  29.2562509  22.2083235  38.4543276  28.3782005  21.8271971  38.4537268
  29.8375750  21.4708805  38.2686615  36.2523222  89.5675755  41.6431284
  37.0819879  89.9724770  41.8959951  36.4931989  88.6864662  41.3570118
  21.3170576  69.7906494  59.3854761  21.6477180  70.6017923  58.9995480
  21.1324906  69.2261076  58.6348391   8.2622129  86.8913746  40.8707666
   8.0086327  87.6953030  40.4173088   8.7444198  86.3882065  40.2146196
  17.6421773  61.8848085  34.3853354  17.2901034  62.6890898  34.0040135
  18.5213900  62.1237659  34.6787930 108.2796860  75.1457882   3.0282068
 107.7909851  74.5829248   2.4277206 107.9320240  74.9314165   3.8938883
  33.2791734  36.9469094  22.6076126  33.7594914  36.2007046  22.2488618
  32.4989772  36.5606499  23.0055165  17.8883004  53.1465626  46.5226316
  18.5246360  53.5316563  45.9201241  18.4182441  52.6455927  47.1426487
  45.5173779   8.0217093  87.8302574  45.3653240   8.5856640  87.0719242
  46.4394236   8.1573641  88.0485821  10.8280182  79.6751070  38.8152671
  11.0554016  79.8668766  39.7250772   9.9045110  79.4253540  38.8467312
  25.5117702  38.7077951  27.3935461  25.4805207  37.7747965  27.1819592
  25.3340244  39.1479707  26.5623522  36.2695003  58.6577129  41.4629889
  36.0184550  58.7955570  42.3763371  37.1240759  59.0814161  41.3829184
  23.8601398  58.6704350  42.1343851  24.5321369  59.2652321  41.8014145
  23.9805126  58.6805534  43.0839300  25.7496548  72.8471088  42.5561380
  26.6114926  73.0914211  42.8934526  25.5300975  72.0401907  43.0218697
 103.4493351  36.5981030  48.8858652 102.6264572  36.9953704  49.1709709
 104.0998840  36.9210815  49.5093298  10.8638918  50.8506966  82.3414230
  11.1469316  51.0150480  81.4419174   9.9954236  51.2494802  82.3958874
  63.4528208   7.1064234  89.0702057  64.0288496   7.5207913  89.7126389
  62.9392672   6.4787495  89.5786572  15.5760479  77.7572250  21.1698627
  16.0356879  78.5120964  21.5374708  15.6115961  77.0955038  21.8605828
   3.4064600  44.0109730  19.9370790   3.8165963  44.0699530  20.7999468
   3.4448743  44.9030399  19.5921504   4.4251093  52.7432108  41.3945484
   4.6705604  53.6649132  41.3142252   3.4819517  52.7598047  41.5570641
  22.6831508  35.8741474  59.3789864  21.8129921  35.7805705  59.7666693
  22.9461122  36.7690849  59.5938540  15.9913123  26.3462710  47.9367495
  16.8148446  26.2488508  48.4148026  15.7827759  27.2778893  48.0062675
   1.8718848  55.2688122  14.0429020   1.8169267  54.6609211  13.3055556
   2.8106117  55.3705883  14.1999555 108.1299496  72.7378273  51.0190630
 108.3425617  72.8238106  50.0897455 108.7317467  73.3382607  51.4590025
  25.0733423  38.4985280  46.8140459  25.2266455  38.0751944  45.9693432
  24.2388225  38.9546084  46.7054272  13.1339121  47.4858046  30.8776450
  13.6712527  46.8537903  30.4000902  12.4858284  47.7808714  30.2379942
  14.3575108  17.5945139  14.0375686  14.4893658  17.5886703  14.9856257
  13.5608840  18.1095600  13.9097166  52.1487904  72.5050497  30.0589132
  51.5799284  71.7362499  30.0192142  52.0590019  72.9141331  29.1982055
  53.0904341  20.1756716  39.8958826  52.9629564  20.7228374  39.1209054
  52.2975016  19.6417618  39.9451804  13.5983479  67.3348141  28.4356070
  13.0794203  67.2715092  27.6337719  13.6217248  68.2712603  28.6324668
 106.1944199  85.7556343  11.4994514 105.9862137  86.5881920  11.9233859
 106.8516350  85.9800434  10.8407140  17.3362899  87.3200989  61.9046593
  17.0653534  86.9654274  62.7514362  16.7924750  88.0988407  61.7860889
   9.1935748  50.0023222  38.0272579  10.0298524  49.5368195  38.0406475
   9.0463269  50.2037096  37.1031404  24.3809414  89.6417713  54.9773979
  24.6367884  89.6259594  55.8996391  24.6628165  88.7930870  54.6360540
  26.7616677  35.1613402  62.4546099  26.0990977  35.3517389  63.1186724
  26.8021512  34.2054915  62.4238253   5.1356179  35.9327817  26.5621495
   4.9808800  35.3531241  25.8163047   5.9480822  36.3901639  26.3455033
  34.7726536  61.0224915  52.3320198  35.0639224  61.9337940  52.3623991
  35.5671310  60.5233002  52.1426868  30.7989764  53.4509945  51.2305546
  30.7940817  52.7354670  50.5947638  30.4675555  54.2058563  50.7441664
  18.7707734  29.0773010  54.9583006  18.4314573  28.7080717  55.7736349
  18.0875230  28.8990712  54.3120575  66.7965937  55.3248072  40.9892893
  67.4113131  55.2799606  41.7216444  67.0487547  56.1158991  40.5130339
  44.5779181  87.1916866  87.0037842  45.2794313  87.8317451  86.8836117
  44.0077400  87.3159695  86.2450504  28.5106158  58.4666300  73.2553673
  28.1564331  58.4237862  74.1435957  28.3527732  57.5951481  72.8922796
  12.8766394  43.8883972  40.7437134  12.0172131  44.0102482  41.1471605
  13.2547247  43.1407595  41.2066650  18.7923622  65.8863735  41.8378258
  18.1462431  66.4896250  41.4705992  18.3209884  65.0585890  41.9316769
 107.9266262  48.3071613  33.4958529 107.6125050  48.2583284  32.5929856
 108.1366062  49.2318344  33.6267114  39.6930218 100.5120373   2.1504748
  39.4555974 100.9555435   2.9648268  39.9136662 101.2214565   1.5469241
  51.9713211  46.3381815  71.2176991  52.6691103  45.9182501  71.7206717
  51.6685486  47.0525074  71.7783260 109.6406174  69.0495253  68.2216120
 109.1664124  68.3676624  67.7457714 110.5371761  68.7198067  68.2824087
   0.4377407  57.5284481  31.2258029   0.3942381  56.5729523  31.2627959
   1.3742879  57.7248526  31.2026167  22.7280855  48.7439871  43.7349844
  22.2562003  48.5428286  42.9268456  23.5280848  48.2211208  43.6816931
  37.3845029  67.6107597  53.8823080  37.4501204  67.2540998  54.7681522
  37.1347880  68.5258865  54.0104485   2.4136169   6.1909705  39.5687199
   2.9988399   6.7891729  39.1040683   1.5592702   6.3247591  39.1583252
  35.5907083  47.1037149  40.9503651  35.2459431  47.5873423  40.1997137
  35.0013065  46.3553858  41.0443544 112.2803402  44.6098137  35.7775307
 111.3371754  44.7721148  35.7956147 112.6411724  45.2227497  36.4181137
  99.9004555  38.6947370  30.4409599 100.7222080  38.3638334  30.0783777
  99.2532730  38.0260825  30.2167201  48.5896397  35.7064748  57.4379873
  48.0720043  35.8015680  56.6384602  49.3189526  36.3160515  57.3250532
  39.4163275  34.1992188  39.3118119  38.8500190  34.0061617  38.5646462
  38.8122177  34.4382071  40.0147820  19.4654715  54.3155575  60.1312160
  19.5243740  53.4014416  59.8534536  20.3676462  54.5628405  60.3341007
  43.0715704  58.9523602  65.7580328  43.6742687  58.7691975  66.4787531
  43.2438517  58.2600117  65.1199102 109.0742397  55.7892275  35.0904512
 109.8017025  56.2060690  34.6286297 108.5402966  55.4023314  34.3965912
  24.7379184  81.5633869  10.7258165  25.1652169  81.1046696  11.4491618
  23.8019538  81.4754677  10.9060156  19.4801366  66.1302900  48.4423971
  18.5471034  66.3362360  48.4995413  19.8953569  66.9617701  48.2133484
  16.2655389   3.6566228  38.1876922  16.0726857   2.7248400  38.0836701
  16.8135667   3.7017745  38.9711833  43.4130383  31.4361119  10.8757389
  43.8744020  31.0306120  11.6098642  43.2381535  30.7127213  10.2737832
   1.9158851  35.9707451  50.5816555   1.6389637  35.7502961  49.6923065
   1.9708514  35.1275373  51.0313368  22.2125649  53.7999964  44.3758774
  22.9458547  53.9135599  44.9805403  22.5867224  53.9691114  43.5112143
   1.9528526  40.7227278  33.2867575   1.0032597  40.8284092  33.3445215
   2.2158037  41.3054800  32.5743771  26.3029838  34.7248340  10.5510843
  25.5462384  35.2914190  10.4009247  26.8127131  35.1788449  11.2221146
 108.3586693  28.3419967  77.9324436 108.8930225  29.0332580  78.3234167
 108.9148140  27.9664993  77.2498560 102.8182220  35.3034830  60.9098673
 103.1137657  35.6112075  60.0530195 103.2237816  34.4420099  61.0079336
  34.8670745  48.9818192  30.3262138  34.7198153  48.0367327  30.2893591
  34.2793870  49.3418789  29.6619773  37.0386577  25.4479575  61.2060928
  36.6379690  24.6224070  60.9337902  36.3266134  26.0860848  61.1611557
  25.3671384   2.5839791  57.4669218  24.8982549   2.6696160  56.6368341
  26.1867046   3.0589169  57.3291636  11.2389350  32.2660351  28.5664415
  10.4802370  32.5655437  28.0655384  11.1466205  31.3137126  28.5945320
 111.1969185  57.2744131  44.5780754 111.2459278  57.5461292  45.4945898
 111.7187405  56.4729786  44.5376253  20.0706172  31.0228324  29.2451000
  20.6146049  31.3990593  29.9370265  19.2196345  30.8811808  29.6598196
  16.5799284  73.8253164  31.8585634  15.9467125  73.7636185  32.5737309
  16.9199741  72.9357433  31.7623281   4.2591947  27.5312185  25.4611802
   4.8403800  26.9701767  25.9746861   4.1988203  27.0980215  24.6097517
  99.6307182  62.8820562  67.4828482  98.6930847  62.7458477  67.3467636
  99.8332119  62.3815489  68.2732391  37.7389240  65.8205700  22.3987126
  38.1831264  65.5085802  23.1871152  36.8515992  65.4684162  22.4685001
   7.7132475  57.6729631  63.1464815   8.4504312  58.2654047  63.2941580
   7.5962090  57.2230530  63.9832115  49.3405628  45.2230883  24.1463447
  49.7423029  45.7740307  23.4745526  48.6353302  44.7644281  23.6897230
  18.3519411  44.1345453  57.4749041  18.2803810  44.4180489  56.5634584
  17.7866352  43.3641624  57.5311995  23.1171179  76.8245173  47.2232485
  23.5643268  76.8298197  46.3769579  22.5091577  76.0872269  47.1682596
  27.4859285  59.3199348  51.1545086  27.3055100  59.3753338  50.2161026
  27.9801869  60.1158094  51.3507748  10.5900741  39.0222001  66.0094070
  11.4905322  39.3287992  66.1161947  10.6763542  38.1695271  65.5831051
  23.2366920  68.7817907  61.1581659  24.1475391  68.8507271  60.8720970
  22.7295518  69.1459179  60.4325914  35.3087401  49.4859743  25.2770543
  35.6845140  49.0745687  24.4987440  36.0599780  49.6521091  25.8465028
  36.3377595  33.4481573  64.2596483  37.2520995  33.4540200  63.9764833
  35.8597255  33.8496375  63.5340261  40.0302219  22.3640466  44.9122095
  40.1788330  21.6834784  44.2557192  39.1394496  22.2051764  45.2244854
 106.5357399  64.7812557  66.6265678 106.1662769  65.3217077  65.9282589
 105.9913731  63.9939547  66.6335678  82.1233463  48.3319712  78.5146379
  82.1703529  49.1388750  78.0018806  82.1919727  47.6315594  77.8658342
  30.9293175  66.5313101   9.8031342  30.6863642  67.4524689   9.7099918
  31.4644933  66.5037727  10.5962670  33.9180994  54.9353123  53.1298590
  34.8216152  55.2477741  53.0823660  33.9174771  54.3140697  53.8580704
  19.5863128  82.7723598  55.1913977  18.7076688  82.6918125  55.5625153
  19.9012578  83.6207008  55.5034065   1.1870666  62.4382401  30.3714085
   1.9559923  62.4734688  29.8024225   1.5149942  62.0775175  31.1951637
  97.4815845   3.3578235  58.7138844  97.2998333   4.1741559  59.1795015
  96.9785023   2.6950771  59.1870737  24.9649811  77.1698999  49.5618010
  25.5160451  77.9521990  49.5857573  24.4279265  77.2791815  48.7770319
   1.9225863  66.1561680  16.1339152   2.3570018  66.9651365  15.8635736
   2.5024667  65.7832766  16.7979348  21.7193437  64.8892117  54.4722080
  22.0214438  65.7876825  54.3391228  21.7012143  64.5099831  53.5935259
   2.6563787  76.5893126  36.9169879   2.5857815  76.1626291  36.0630608
   2.9543892  75.8968496  37.5068331  39.8319745  54.8851871  27.8597641
  39.8203349  55.4780197  27.1083307  40.1098394  55.4337406  28.5933280
  36.5081501  68.5796547  17.0574474  36.8987942  68.9842367  16.2828863
  35.5678630  68.5779619  16.8783236  26.0187602  65.9870577  60.0938272
  25.7495689  65.6509066  59.2389774  25.2059340  66.0420847  60.5963373
  29.6869683  65.7572651  53.4379864  29.9035501  65.5339527  54.3432236
  29.8370385  66.7009449  53.3816242   6.3709724   3.5459068  24.6354127
   6.6582620   4.2440790  25.2238441   6.5386689   3.8884649  23.7574816
  32.5510311  78.9825058  52.2073317  32.8505802  79.7161388  51.6704130
  33.3166146  78.7378979  52.7272177  42.0263767  28.8323736  70.8336496
  41.7227221  29.6674800  70.4778099  42.9645729  28.8183331  70.6443691
   2.2661394  42.4328709  26.2568998   2.9021490  42.6608086  26.9349599
   2.4276868  41.5063810  26.0787106  30.0150323  46.1001301  35.7250333
  29.5313692  45.4405260  35.2278209  29.6349669  46.9342470  35.4492855
  34.7302413  41.7829037  42.1395636  35.4762244  41.1831236  42.1407557
  34.7104406  42.1387577  41.2511921  35.1561236  79.5337057  34.3223238
  34.9622917  80.0196743  35.1238799  35.6990099  78.8005352  34.6120930
 110.5776882  58.6275244  53.2390738 109.9996948  58.4953403  53.9905214
 110.6122875  57.7724838  52.8101873  52.7563381  32.8047848  48.0230427
  53.2608271  33.6179733  48.0441523  53.3683681  32.1519876  47.6831818
  11.6356587  57.5458050  62.1571255  11.5282381  57.4268532  61.2134409
  11.5524864  56.6642380  62.5206566  20.4515505  73.8750696  51.3821697
  20.2139759  74.7975206  51.4763546  21.2199473  73.8827038  50.8114338
  24.6260285  44.8680305  50.7821274  24.0534449  45.6054163  50.9934330
  24.2168951  44.4577599  50.0202131  43.1633663  36.1076760  79.7481537
  43.8867521  36.5348887  79.2894316  42.3754644  36.4828157  79.3548203
  14.8575068  45.4567528  64.7106981  15.4982519  46.0867548  65.0405073
  14.5356202  45.8459044  63.8975668  11.4144397  74.5601273  50.1112127
  12.1635115  74.8187160  49.5743179  10.6658435  74.6074295  49.5165730
  17.6109958 100.7971382  36.5289688  17.4004555 101.0983562  37.4128079
  16.7623854 100.7247257  36.0921073 101.6981125  44.9638939  34.2128110
 101.2422276  45.7467890  33.9038086 101.0793591  44.2499828  34.0588379
  30.2914453  76.7517376  76.5638256  30.8823609  75.9990740  76.5403509
  29.7860384  76.6344500  77.3682165 106.8448353  69.2706108  58.9095688
 107.5367260  69.5736122  58.3216047 106.7120171  68.3533192  58.6704874
  21.4456987  24.4513488  76.8709755  21.8025446  23.8278174  77.5035143
  22.0729780  24.4445896  76.1479902  36.4505768  52.3096466  36.2795353
  36.5036893  51.3539267  36.2760973  37.2489595  52.5922918  36.7255473
 112.8415775  66.9334698  42.2073269 112.9875278  67.2468042  43.0999374
 112.3626804  67.6433516  41.7795897  15.2092361  60.6921625  40.2742720
  16.1179280  60.3920364  40.2533817  14.9688685  60.6638145  41.2003660
  18.2430601  51.4301205  33.7551928  18.5473573  52.2570324  34.1291642
  17.8989363  50.9413862  34.5028234  14.9323249  28.9573121  30.0774813
  15.6364059  29.6037912  30.0268292  15.0872552  28.3756399  29.3332481
  43.2190561  46.7887020  90.5974007  44.0712404  47.1669102  90.3806591
  43.1243372  46.0507917  89.9951077  13.7870514  49.5035553  56.4484835
  13.4280753  49.8898745  57.2473097  13.9954424  50.2541018  55.8921671
  85.8422565  20.9482217  85.3232002  85.6254482  20.5118608  86.1471081
  86.7747307  21.1510968  85.3977585  44.9179029  59.0336895  13.9229643
  45.4367113  59.3437433  14.6652174  44.3298626  59.7614861  13.7210965
   3.3206877  58.4165239  26.5536427   3.3297727  58.6132050  27.4903727
   2.4017054  58.5019732  26.2998676   2.8760213   4.3405807  34.2545843
   3.5183001   3.7433073  34.6379566   2.9494861   5.1390111  34.7774053
  31.1837411  19.1736877  40.6547737  31.5232086  19.3898439  39.7862887
  30.3375840  19.6190059  40.6988478  36.6772342  30.4570794  32.5299335
  36.4039803  31.3116312  32.1963048  35.9563565  30.1788449  33.0948663
   7.0669436  80.2234650  17.0392609   6.7073154  80.3170776  16.1571407
   6.3436222  79.8691177  17.5564420  62.2983980  89.0251637  18.7454700
  61.6683054  89.5001698  18.2036328  62.6071119  89.6737289  19.3781579
  22.5317836  17.6376045  20.3354478  22.7628136  16.8517840  20.8307695
  23.2067657  17.7019215  19.6598053  56.8135643  37.5888658  33.6614299
  56.2187243  37.4437833  34.3971944  57.5555944  37.0098186  33.8355660
   5.7228929  42.3953533  52.9941463   5.5906063  42.8772211  53.8105631
   4.8679501  42.0100307  52.8022289   2.0094889  61.0945320  72.1970034
   2.8745723  61.4526939  71.9980526   1.7931496  61.4547014  73.0570650
   3.0741802  44.4251347  76.1541605   2.9163611  44.0546417  75.2857924
   2.4928476  43.9329290  76.7338324  14.2793417  36.2116718  36.9399929
  13.9170086  36.9636178  36.4714622  14.1851604  35.4807758  36.3291287
  23.6357903  52.2162533  39.3577957  23.0474138  52.9583359  39.4969296
  23.2846045  51.7737436  38.5850811  36.4282703  67.7946281  58.8761854
  36.7362332  68.6801720  58.6833191  37.0129132  67.4828720  59.5670080
  23.6231422  70.5544996  57.2610760  23.2229066  71.3647366  56.9455433
  24.5229483  70.5896282  56.9365072  36.2634850  75.5335808  62.5995159
  37.0388150  75.6243801  62.0455742  35.8519673  74.7213507  62.3042631
  19.2710292  56.2030506  63.5670280  19.5047605  56.8344450  62.8866243
  19.7079456  56.5269947  64.3546772 104.4929600  64.4798088  23.5067677
 104.2814732  64.6649027  24.4217777 105.3822708  64.1267252  23.5331821
   2.3132256  28.6177158   2.8409702   2.8070897  28.3243823   3.6066628
   2.2333594  27.8364277   2.2937581  25.1588774  56.9717407  50.1622820
  25.8777428  56.4106083  50.4531384  25.3444457  57.1390915  49.2382765
   2.9447821  85.3118992  12.4916112   2.7802831  84.4452190  12.1200657
   2.1130258  85.5617523  12.8940821  41.8633270  76.8668652  67.0964289
  42.4124050  77.1615124  66.3698387  41.7146111  75.9373903  66.9226551
  42.9319859  40.2630520  61.3313103  43.2916498  40.1217508  60.4555798
  43.6826944  40.5397367  61.8567753  16.4960396  47.5261927  61.2681055
  16.9035900  47.1423101  60.4917240  15.7842863  46.9248056  61.4871311
 104.6141624 106.9968224   3.1559381 103.8561535 106.8515778   2.5897643
 104.4283676 106.4825153   3.9415574  20.6032681  71.4654684   3.1756824
  19.9531722  71.9645309   2.6811713  20.6485343  71.9059372   4.0243101
  11.5091765  50.9840822  61.5767288  11.6868031  51.3716364  62.4337482
  11.5881956  51.7141247  60.9627104  50.2958155  53.2967472  25.8568358
  49.6634340  52.5792408  25.8957624  49.9051523  53.9894819  26.3894963
  78.9480352  30.8765507  45.0561333  78.4910583  31.6748047  45.3210831
  78.2909107  30.3724480  44.5762348  16.8981147  26.7211366  25.1197147
  16.7885852  27.6192856  24.8073649  17.8175068  26.6688275  25.3808951
  91.4599514  89.9727631  20.0277281  91.8206978  89.6385956  20.8489609
  92.0621777  90.6698418  19.7676611  47.4268150  20.1064301  21.2514639
  47.2353506  19.2897177  20.7904267  46.6476822  20.6458879  21.1166716
 109.9254131  29.6219635  53.8344193 109.6489811  29.3766713  52.9514456
 109.9818707  28.7915254  54.3070889  17.1226668  54.7452641  42.1238852
  17.5695753  55.2877951  42.7736235  16.6114354  54.1234970  42.6418447
 109.3860817  45.1688242  38.3286905 109.2753124  45.2761173  37.3839927
 109.7741318  44.2993689  38.4271264  51.6401815  23.6042094  56.2304688
  51.7435551  24.3980050  55.7056522  51.0818195  23.8709354  56.9607592
  39.5408750  78.6623716  66.3151312  40.0286102  77.8596401  66.4994192
  38.6702347  78.5026026  66.6793966  30.0776148  45.8331490  20.7217598
  30.1049972  45.9833574  21.6667056  29.3327403  45.2456999  20.5941057
   1.0545029  70.7625675  40.1457119   0.7922190  71.5282488  39.6346664
   1.8716317  70.4724550  39.7402906  37.0355177  45.1220798  20.5104494
  36.0890675  45.0313377  20.6210399  37.2776937  44.4064093  19.9227417
  23.5568357  52.4702549  48.6973715  23.2462478  51.9272041  47.9728985
  22.8230071  53.0534697  48.8912582  16.3656855  50.0554132  29.7422719
  16.6336596  50.7836199  30.3027511  16.5356231  50.3632641  28.8520026
  17.4266958   8.3686203  56.5660191  17.0773566   8.0983800  55.7168055
  18.0445731   9.0696806  56.3587189  39.5080137  59.9802494  51.3664961
  40.3947973  60.3390026  51.4002466  39.6191335  59.1004181  51.0062408
  34.1835546  85.3634071  52.8843641  33.2280350  85.3674126  52.8278399
  34.3687057  85.4669380  53.8177633 101.2359810  61.6538286  26.4549589
 101.9482708  62.2558832  26.2395525 100.5821896  61.8020821  25.7717252
  12.3650682  39.6640277  14.3988836  11.8333304  40.1114893  15.0571108
  11.9440269  39.8765922  13.5659528   5.1950485  73.6681938  14.0517569
   4.8847607  72.7884150  14.2660987   4.9383318  73.7968588  13.1386447
  24.8198915  35.7753754  76.7801809  23.9599681  36.1845064  76.6833401
  24.6280003  34.8625135  76.9948769  28.5132360  38.7069893  61.5377665
  29.3549871  38.2824421  61.3720989  27.8712130  38.1416368  61.1083269
 103.4845066  41.8981647  68.1447935 103.1378746  42.2041988  67.3066902
 102.7074909  41.7199850  68.6746407  95.1151562  26.6785336  52.8473568
  94.2018986  26.6569090  53.1332350  95.6211853  26.5977836  53.6558342
  18.5635364  38.3960319  52.6784134  18.1511593  37.6595902  53.1298876
  17.9543018  39.1239762  52.8015518  30.9421563  70.6749249  24.0204954
  30.5016756  70.2064466  24.7295380  31.7598915  70.9846926  24.4098330
  20.4272342  38.7413836  62.5409698  19.6167552  38.7422848  62.0316982
  20.1952934  39.1771889  63.3610344  40.7883739  59.1212225  11.5378845
  41.0193825  58.4076834  12.1326387  40.4936981  58.6820889  10.7400370
   0.9644232  59.3862677  47.6025724   0.7696643  58.4662151  47.4242306
   0.3330682  59.6384859  48.2763767  15.8755600  61.6282749  19.4467521
  15.9828794  62.5375080  19.7260511  16.4636409  61.5370131  18.6970425
  42.9749584 101.9369602  52.0950651  43.3488846 102.2576523  52.9157782
  43.7229586 101.8682671  51.5017653  21.0948873  36.0343146  71.0526228
  21.7218137  36.2739253  70.3701448  21.4666128  36.3961720  71.8570566
  28.3096051  74.5357084  61.4972019  27.3637891  74.3997717  61.4407396
  28.5621762  74.8285770  60.6216049  15.8255982  59.1003656  44.0316963
  16.7361927  59.2321062  43.7676954  15.8578587  58.3661842  44.6450186
  17.0105433  26.5572381  39.0968990  16.9285321  27.1138144  38.3224773
  17.8217912  26.0690713  38.9561844  20.0760794  94.5085430  68.0315781
  20.0054288  94.8468304  68.9242172  19.9598634  93.5629177  68.1239176
   3.4880602  49.8522854  38.4882545   3.1935227  49.0240717  38.1093836
   3.3312622  49.7551823  39.4275212  10.5662751  67.9978037  81.7605877
  10.1185513  68.8288260  81.6019058  11.0908282  67.8541327  80.9729099
  12.5287938  48.8170576  14.9359632  12.2371650  48.0811501  14.3977940
  11.8213689  48.9470673  15.5675340  10.2271056  81.7884254  31.6116023
  10.8251774  81.2195396  32.0962763   9.7325701  81.1923313  31.0491586
 100.3865051  10.2628124  55.7892036 101.1003399  10.5859840  55.2394438
 100.2299690   9.3709993  55.4787254  35.6678748  69.0825748  19.7632182
  35.9383821  68.7920761  18.8922036  34.7208190  68.9444351  19.7783780
  21.8471265  37.5075507   8.8658869  22.1014690  37.5602818   9.7871691
  22.5786662  37.9036498   8.3924055 103.3856583 106.4075375  67.1639967
 103.6682320 107.0429993  67.8217030 103.8504314 105.6027699  67.3932791
 107.3739243  64.3616104  86.7413998 108.0230427  63.6942053  86.5190315
 107.1667194  64.1970921  87.6613045  29.3043089  11.0680771  58.7483740
  30.0428009  10.8998859  58.1630754  28.7442303  11.6714442  58.2600164
  13.6859024  56.3348675  49.9444151  12.8447247  55.9443951  49.7073841
  13.8783813  56.9414139  49.2293739  14.5711112  49.4898891  44.4860506
  14.6799958  48.6203957  44.8712206  15.4630399  49.7818279  44.2977238
 113.5088246   1.3561219  80.6380081 114.0705706   1.9367138  80.1246071
 113.6531524   1.6241050  81.5455246  17.7273643  33.9372897  26.7993999
  16.9372082  34.4517541  26.9643617  18.3989179  34.3486214  27.3435092
  59.9530315  66.9316626  59.0245056  60.3936958  66.6645336  59.8311567
  60.3856468  67.7480507  58.7743187  15.5308402  86.9192600  22.3077130
  16.3976228  87.2032070  22.5980520  15.7057679  86.2082481  21.6911936
  33.9535093  55.0550270  23.6655569  33.2183790  55.5435848  23.2952499
  34.4280028  54.7222996  22.9037309 106.0246754  66.7254305  57.7586031
 105.2801418  66.3363600  57.2997665 106.1926937  66.1309290  58.4897470
  20.1883531  69.7713518  65.3025484  20.3024125  69.0199757  64.7206116
  19.2574024  69.7628593  65.5250120  39.0222549  73.7954664  17.8717268
  38.3394647  73.4205055  18.4279943  38.5784435  73.9906549  17.0464003
  38.1392121  54.3442583  31.9288516  38.8308454  54.9464512  32.2031426
  37.6924920  54.1065311  32.7413559  35.4364538  81.2005234  23.4949756
  34.5897508  80.9869766  23.8870478  35.4201007  82.1521664  23.3932590
  40.0908089  63.5508204  42.0493269  40.9758377  63.9154387  42.0461321
  40.0700617  62.9791403  42.8167820  29.5952630  37.6702785  16.8052244
  29.0966773  37.0926714  17.3831618  29.6200371  37.2076941  15.9675884
  31.3097858  51.8824005  44.6376753  31.1516500  52.1307802  43.7268877
  32.2602129  51.7861223  44.6981144 108.0254555  83.6099243  19.3017137
 108.1794643  82.7261448  19.6355426 108.6411858  83.7019920  18.5746408
  15.7045746  56.6831684  68.8078451  16.3448882  56.6585016  68.0967760
  14.8767924  56.8970680  68.3774328  45.2620792  78.0093861  17.7301204
  44.3324518  77.7896547  17.6689017  45.6777477  77.2065544  18.0446219
  30.9273338  49.4656038  42.4473000  30.1479578  49.4716644  43.0029726
  31.5642262  48.9421558  42.9337168  36.7660880  89.8914909   6.9134045
  36.4060950  89.4981956   6.1184454  37.6737881  89.5888615   6.9404650
  29.4223285  63.7199116  35.4059553  30.1984334  63.9324379  35.9243441
  29.5492601  62.8069115  35.1479745  33.1990671  69.7331142  55.7129717
  33.1592894  68.8760662  55.2885675  33.5462999  70.3179979  55.0394917
  35.0090647  85.3239632  34.4390154  34.7917175  85.8623505  35.2000237
  35.1248288  85.9523296  33.7262797  38.5652447  90.4562283  49.5296431
  39.4755387  90.7394600  49.4437170  38.6142659  89.6403599  50.0278330
  42.2490311  53.3695984  29.8384619  42.8397226  53.2233429  29.0995908
  42.8177929  53.3465195  30.6080127   1.3090746  41.5689898  44.9471378
   0.5574404  41.6626263  45.5323839   0.9818116  41.0397768  44.2197704
 110.5145359  58.1138515  66.1613464 110.6153107  58.6384153  65.3670502
 110.2414894  58.7418938  66.8301058  11.8421209 102.3375797  33.7351608
  11.8989146 101.9245625  34.5967984  11.5120387 103.2182884  33.9130068
  39.6692133  53.8598394  82.8068352  40.5037832  54.2655134  82.5719833
  39.0390491  54.5800924  82.7877903  24.2302966  52.2739935  52.5958729
  24.7780657  52.3785305  51.8178892  24.8532343  52.1772146  53.3161592
  12.2045052  89.4298363  54.8567200  12.9065800  89.8785782  55.3278399
  11.5332210  90.1006126  54.7315454  26.9135880  85.3427029  42.8173161
  26.8700886  84.7116089  42.0989466  27.3594236  86.1021709  42.4422598
  45.4316425  93.7783051  40.4226017  46.3248253  94.1052532  40.3150892
  44.9157238  94.2786217  39.7903538  24.2784429  83.2286930  39.7612262
  24.8134279  83.9853573  39.5214605  23.3761239  83.5358238  39.6733308
  77.3824644  46.5702534  27.3809600  77.8730583  46.1649179  28.0959797
  77.1959734  45.8492899  26.7795730  28.1828880  23.0992818  55.8515120
  28.6046505  23.7953424  55.3476810  28.0869198  23.4646678  56.7310095
  21.7187071 102.8240108  57.0614338  20.8584595 103.1536674  57.3213148
  22.3401523 103.3761215  57.5360060  35.0189948  80.2186489  59.3931246
  35.7534170  80.3147316  59.9994469  34.9145365  81.0869026  59.0039492
  42.7024603  58.2771158  40.0001097  43.5237598  58.7306118  40.1899481
  42.9645491  57.3761749  39.8107791  50.2887917 104.7848415  32.9896736
  51.2145376 104.6789837  33.2088161  49.8463106 104.0899181  33.4770370
  53.3974838 104.0261936  87.2517872  53.4563255 103.0873775  87.4289703
  52.8886843 104.3764973  87.9829884  18.0479729  77.4449968  17.4518049
  18.3920443  78.0942249  18.0652761  17.1166933  77.6539993  17.3792267
  24.2828059  68.2958984  45.5040359  23.4219694  68.4086657  45.1009560
  24.6748590  67.5623417  45.0303078  21.6774821  51.5690851  41.8281031
  21.7350936  52.0448303  40.9995031  22.0378995  50.7040215  41.6331625
  25.4694510  48.4729004  63.1231451  24.8392344  48.0802011  63.7271690
  25.9177327  47.7262640  62.7258921  31.4888048 106.4200115  27.3233008
  31.6578555 106.2334442  28.2467985  30.7967520 105.8060360  27.0776939
  17.9657900  26.8835473  81.6975594  17.4065685  26.8819547  80.9207058
  18.6748123  26.2771583  81.4835262  34.7182608  78.8621998  82.6873398
  34.9242663  79.7967529  82.7072620  34.4417429  78.6970520  81.7859554
   4.7916049  55.6876183  62.9529858   3.9341903  55.7601500  63.3722830
   4.6130186  55.2613258  62.1147680  19.9045801  91.8498421  20.3919291
  20.1310301  91.9680882  21.3144112  18.9717650  92.0594501  20.3455234
   7.7639496  63.7343216  50.0741911   8.5388029  64.1415024  50.4615355
   7.2656727  63.4070683  50.8230972   3.1565180  59.9147797  49.0574408
   2.6040971  60.0269651  48.2838297   2.5395721  59.8709106  49.7879791
  15.4942489  71.8148804  30.2975440  14.8416853  72.4919081  30.4765153
  15.0364971  71.1810112  29.7453666  28.0384970  55.9055662  35.6978178
  28.1571984  54.9832582  35.4709125  27.8593922  55.8997631  36.6380954
  66.9930935   2.4424732  19.6830249  67.0447063   2.7660131  20.5824065
  67.3121500   3.1694478  19.1482878  66.5684223  86.3165379  61.0294199
  67.1012163  85.5396366  60.8597565  65.9104919  86.0228157  61.6595697
  44.2189026  69.0477371  69.4252539  44.1808605  68.4367657  70.1611185
  45.0979710  68.9333487  69.0641689  24.0076613  54.6593714  25.8002567
  24.2728162  54.6694803  24.8805714  23.2997227  55.3014994  25.8524895
  49.0614033   3.7714463  17.4316084  49.1974831   3.8371736  18.3768034
  48.1191015   3.6342359  17.3342586  46.5102577  55.7576323  20.1440334
  45.7512045  56.3243961  20.0067258  47.2483778  56.2570572  19.7947717
  21.5715313  66.1423111  26.4787459  21.2053323  65.4771900  25.8958673
  21.4001441  65.8093739  27.3596597  24.9368501  42.8687572  42.6116848
  24.4907975  43.0568361  43.4374571  24.8501754  41.9217110  42.5029373
  24.1450143  65.5230427  31.2121868  23.2139492  65.3018570  31.1915994
  24.2800951  65.9104395  32.0770049  65.6473207   0.5111347  29.1082406
  65.8044386  -0.4052699  29.3357229  66.2066698   1.0058610  29.7070765
  28.0059004  45.8570004  48.9313889  28.7742376  45.9013033  48.3622456
  28.3418465  46.0628319  49.8037481  94.4092178  99.4146156  91.8362236
  94.2025471  98.4835720  91.7544937  95.2994728  99.4933319  91.4934731
   5.0895739  83.3722115  79.9058819   5.5987644  82.5733566  79.7688150
   5.3778481  83.9624119  79.2096138  65.0247717  13.1730127  81.3171482
  64.2026997  13.5351741  81.6477013  64.8358154  12.2464454  81.1688232
  12.0720899  92.0492077  55.9409571  12.0439053  92.9852581  56.1390829
  11.2566209  91.7030144  56.3034296  13.3285129  22.6449656  40.0907469
  13.5009944  23.5850763  40.1424646  13.5719025  22.3089886  40.9533644
   5.5129713  68.6566305  52.6277113   5.5416989  68.5882473  51.6733885
   6.1160570  69.3704748  52.8349495   6.6128784  68.3696318  31.2194514
   6.6512913  67.9720783  30.3495622   5.9886122  69.0892792  31.1265469
 102.1023560  34.1110516  88.4026146 101.3382053  34.0397620  88.9746571
 102.1500206  33.2637191  87.9599094  33.2164383  22.7655292  60.1941967
  33.0448103  22.5210285  59.2848015  33.9029479  23.4301972  60.1380301
  36.5470147  73.5041809  54.9697781  36.8688869  74.3790388  55.1871586
  36.6182184  73.0126143  55.7880211   3.3336234  73.3804655  46.9685268
   3.0383325  72.9038477  47.7443266   3.6068907  74.2350531  47.3020458
  74.1112137  10.9224737  68.4936571  74.4796038  10.1218367  68.1201553
  74.5725250  11.0332406  69.3250179  31.2803745  63.5857391  12.2204399
  31.0194826  63.8122320  11.3277650  31.4879823  64.4257545  12.6297200
  40.4361582  64.2470407  48.6545420  40.4580259  63.3533192  48.3124685
  41.3563395  64.5046520  48.7105274  19.2754090  39.7009397  50.5737257
  19.1573083  38.9549780  51.1617994  19.8077011  40.3189373  51.0747004
  26.7289901  68.4619570  26.5279913  27.4211454  67.9208660  26.9079566
  26.1896110  67.8467894  26.0311294  21.1104083  75.7467318  63.6549902
  20.5547833  75.2802134  63.0305910  21.9366360  75.2634811  63.6479950
  27.5284028  72.4335241  46.2283802  27.5860238  73.3689642  46.0337973
  27.4800897  72.3900652  47.1833754  32.7875805  82.2288322  40.5094814
  33.3760834  82.9763126  40.6151342  33.3354616  81.5453053  40.1236725
  38.6192822  73.5935211  34.5555091  37.7383995  73.2199764  34.5282960
  38.4810472  74.5382214  34.4872665  44.6763992  31.4956808  50.9439850
  44.4348192  30.7220244  50.4347467  45.1600647  31.1478400  51.6931915
  31.7368960  51.5721178  55.7516432  31.2435937  52.2542667  55.2960539
  32.1575427  51.0727549  55.0516987   9.7744173  72.1637106  45.1294231
  10.6574547  71.8056202  45.2202511   9.2442250  71.6513252  45.7398272
  65.8668518  51.6636372  21.7354822  65.0430202  51.9825077  22.1040583
  65.6351709  50.8382559  21.3096857   8.9862674  66.6274881  49.6753073
   8.0518502  66.4398575  49.7641420   9.2477113  66.1692190  48.8766384
  32.4608183  64.1773367  53.5934877  32.4077010  63.6321163  54.3784380
  31.6863537  64.7380590  53.6384869  43.8458204  71.4617968   6.4299399
  43.4865952  71.1248827   5.6091601  44.4915628  72.1142817   6.1588126
  28.4165239  43.7672806  20.0521731  28.5492778  43.0973482  20.7228398
  27.7633715  43.3900690  19.4628215  12.7100480  46.8874645  24.9992847
  13.2851076  46.2449121  24.5837545  12.3826551  46.4448738  25.7823300
  19.7669733  43.9045191  47.2638988  19.7813952  44.2506409  48.1562138
  19.4426584  43.0090332  47.3595667  19.0357935  72.3866177  53.1617594
  18.9248490  71.6466093  52.5648403  19.6507740  72.9665279  52.7126074
  31.6445661  71.2600040  73.9139366  32.3793840  71.8210554  74.1619301
  31.7500329  70.4754114  74.4520044  51.4275122  73.2326412  27.6975226
  51.4934444  74.1875648  27.6990819  51.4321375  72.9937506  26.7706251
  65.9041977 100.9258747  40.3666115  66.0849714 100.5590153  41.2320423
  66.3684034 100.3488636  39.7601438  19.9866986  58.8857651  19.9219549
  19.0390611  59.0026808  19.9893844  20.1825142  59.0445614  18.9985526
  19.8235309  45.7408810  63.8180399  20.7481003  45.4935598  63.8026333
  19.3526220  44.9138021  63.7159824  38.2208681  82.6609325  61.6082668
  37.6500535  81.9107628  61.4419699  39.0216017  82.4651051  61.1217403
  26.2858129  59.4638586  48.6725426  25.3411198  59.3632889  48.7894630
  26.5665936  58.6408663  48.2724428  18.2015944 104.6401405  73.4430265
  17.9152608 104.1621399  72.6647234  17.5680864 104.3988895  74.1188192
  41.7178106  86.8837261  67.8109694  42.3936033  86.7188835  67.1534252
  42.1124935  87.5218868  68.4052801  38.6471176  75.6908846  58.4411621
  39.3866849  75.5270720  59.0263414  38.1365776  76.3685274  58.8843107
   8.1630963 100.8532429  40.6887007   7.7498740 101.3644695  41.3844919
   8.3285815 101.4876938  39.9913311   0.4394419 104.1221714  33.8000512
   0.9443722 104.7225952  34.3484688  -0.1804757 104.6851540  33.3363914
 107.9498482  64.3824768  50.3009892 107.4672222  65.2085686  50.2712727
 108.2502365  64.2481089  49.4021320  40.1993990  47.5912857  46.1925411
  39.5853162  47.4980927  45.4642200  40.3301764  46.6982508  46.5113258
 112.1706772  76.8355227  49.8319006 112.5463104  76.4545250  50.6256104
 112.7667713  77.5487137  49.6032906  68.1149006   8.4708148  70.7051516
  68.2639027   9.2504227  70.1701355  68.2022047   8.7790620  71.6071415
  22.7044010  91.3072872  37.8431010  22.8017735  91.2124062  36.8956041
  21.7673826  91.1911583  38.0003977  38.0511594  27.6185179  43.3993816
  38.3105063  27.9078770  44.2741632  37.0945239  27.6494336  43.4106922
  53.9839268  92.5439072  69.7650290  53.0479336  92.6005840  69.9572325
  54.1973162  93.3860207  69.3630981  37.7069020  60.7774830  53.3538246
  38.4607697  60.5633783  52.8042126  37.6800275  61.7342758  53.3613682
  10.4481614  29.8122907  34.7196126  11.1756349  29.4860625  35.2493238
  10.3080213  29.1324091  34.0605569  41.6575956  65.8732939  55.2179861
  42.3250294  66.0173750  55.8888102  40.9103489  65.5146122  55.6967306
  36.4181018  95.6774998  59.0125561  35.9612274  96.5180969  58.9826870
  37.2452807  95.8382130  58.5584879  30.7845807  90.5182457  17.0599008
  31.2705922  90.9820175  17.7417648  30.0628471  90.0956917  17.5255013
  23.4117031  38.7320924  16.9296348  23.7962055  38.7750435  16.0541093
  22.5149155  39.0457988  16.8130398  27.1168637  56.2422466  38.2055402
  26.7851448  56.6430664  39.0089917  27.8316998  55.6765747  38.4975266
  27.7550769  68.6127043  40.0657606  28.3272409  67.9581594  39.6652293
  26.8959188  68.1919718  40.0983953   6.4111197 100.7410717   9.1950506
   7.1218926 101.3820362   9.2091984   5.7438326 101.1357498   8.6336315
  29.1898036  51.4779043  73.4101963  29.6146393  50.7740593  72.9199409
  29.1312504  51.1446190  74.3055820  30.6352997  40.8774900  48.7495947
  31.2138963  40.1321316  48.9105177  30.1348662  40.6288147  47.9724455
  33.3139586  83.1844521  56.8703890  33.2229114  82.2384644  56.7561436
  32.4150324  83.5038471  56.9488049  31.6493917  92.3337269  26.9374537
  32.3550677  91.8442726  27.3601699  30.8467507  91.9291210  27.2665358
   2.4735311 101.0922527  35.3440785   3.3769757 100.9539223  35.0596786
   1.9579348 101.0362720  34.5395565 108.5111904  67.0295477  55.9632826
 107.9906559  67.0533705  55.1603460 107.8637314  67.0166254  56.6681671
  37.5675917  76.8437243  74.5637417  36.9760776  77.5851488  74.6927261
  38.1730700  77.1360874  73.8824558  59.9245071  87.1870995  31.0892057
  60.3944063  87.6337337  31.7934418  59.4224358  86.5032005  31.5324044
  35.0896525  55.7539749  27.8241205  35.8070707  55.3215218  28.2872939
  34.4155693  55.8809042  28.4917521  45.7297421  99.7392750  24.1747475
  45.8003426  99.3994331  25.0667977  44.9851465 100.3399944  24.2055321
 108.1014442  70.5276299  47.2620440 107.9170132  70.3459072  46.3405275
 107.4886703  69.9714947  47.7431393  24.9403000  51.6500139  31.1261773
  25.6098485  52.3299217  31.0509157  24.4642043  51.8702888  31.9268298
  46.2657166  51.8173027  23.9867806  45.3369427  51.8191099  24.2183089
  46.3383961  52.4621153  23.2830977  67.4643612  11.3139975  45.8550215
  67.6358557  12.0895410  46.3892078  67.9917336  10.6242406  46.2579441
  99.1171169  24.4987917  80.0890541  99.2210770  24.0339518  79.2587805
  99.9537182  24.3772364  80.5379868  68.6298609  73.9133024  88.6218166
  67.8889608  74.4694185  88.8627243  68.4854698  73.7089014  87.6979160
  48.3706903  51.1222792  37.0845246  48.3414650  51.9047546  36.5339684
  48.6053801  51.4491463  37.9530358  37.2957206  54.7543526  29.1772509
  37.6369953  54.5463753  30.0470257  38.0512214  54.6662045  28.5961485
  57.3081493  70.7428646  26.7803907  56.7156363  71.4398479  27.0621181
  56.8074608  70.2515364  26.1291289  21.8133712  58.2349777   0.7066469
  22.2668934  58.5344458   1.4945981  21.8889642  58.9666271   0.0941067
  10.7814586  86.3816071  12.0031655  11.5798306  86.8884850  12.1511722
  10.0926697  87.0402622  11.9138932  24.6008825  61.0246849  26.3125396
  24.9413180  60.7603359  27.1672058  24.2063165  60.2290821  25.9553766
  49.5535469  50.2042484  29.5031023  49.4719839  50.4537630  30.4236031
  50.2629662  49.5617437  29.4910622  35.9420419  69.4183874  28.8515949
  36.5575194  69.3232727  29.5784879  36.1919355  70.2418089  28.4323549
  26.9529176  72.2762394  30.6496835  27.7200007  72.6839638  30.2477145
  26.8128800  72.7724791  31.4561367  19.7942448  78.6831665  28.4520626
  20.3843331  78.1416082  28.9762211  19.1042757  78.9448071  29.0617514
  36.7295837  38.6820149  47.7111053  37.2507882  39.4717765  47.8555202
  37.3514628  38.0459404  47.3576784 111.1622810  68.5670519  40.8025122
 111.8204975  68.8982344  40.1915312 110.4733753  68.2099819  40.2420282
  55.2086878  91.6073322   9.3739736  55.4033613  92.3664093   9.9236393
  55.2498245  90.8614063   9.9724209  97.7012348  24.0375710  71.4896059
  97.0140553  24.5965314  71.1268711  97.9575253  24.4708323  72.3037481
 103.1868839  78.8736200  58.1442165 103.1320000  77.9195595  58.0894995
 104.0785122  79.0787601  57.8628922  51.3703918  79.3290710  52.9380083
  51.2816668  79.3775892  51.9861650  51.5438223  80.2306843  53.2086563
  81.2451553  75.8061457  59.5917845  80.6655693  75.6669474  58.8428307
  80.6781197  75.7025051  60.3559589  17.6999509  85.1045036  54.6661282
  16.8414760  85.4233360  54.3875551  18.3107090  85.4715061  54.0269756
  27.7790070  36.7182541  81.3762760  27.5414252  37.6248431  81.5709209
  27.1989250  36.1946702  81.9290829 112.5175667  83.5377789   6.1780453
 113.3035755  83.7578869   5.6780797 111.8880367  84.2210674   5.9477240
  19.9775434  72.2289658  45.1745510  19.9813867  71.6821766  44.3889046
  20.8235765  72.6764250  45.1590824  49.5384693  82.4049282  54.3297052
  49.1302013  83.2408524  54.1043568  50.2052927  82.2745991  53.6554766
  53.7453794  75.7672262  61.5431929  53.9839888  75.5728436  60.6368208
  54.4981146  76.2447643  61.8918800   3.3755979 104.2642784  45.3584099
   2.9295051 104.0202427  46.1693811   3.0953175 105.1643467  45.1923847
  36.6108298  57.1493387  64.8951864  35.8345437  57.3551321  65.4160118
  37.2964025  57.7126169  65.2542686  36.7315364  60.7541704  71.9918060
  37.6466656  60.7823277  72.2710514  36.4460611  61.6675329  72.0142508
  54.0480566  59.3405819  67.1678686  54.7638273  59.7768307  67.6300240
  53.3405828  59.2945433  67.8109789  39.4186020  36.3711071  53.2859373
  39.3722224  35.4278350  53.1300020  39.0289927  36.4901233  54.1521215
   2.1577062  47.8350210  28.8289857   2.2835720  46.9268131  28.5541224
   3.0435085  48.1935835  28.8839412  43.8222361  92.1464252  80.4678440
  44.5852470  92.6706505  80.7112217  44.1628027  91.2567425  80.3744888
  33.7040830  83.0372810  34.6322823  33.7330055  82.5929642  33.7849450
  34.1177368  83.8855076  34.4721842  43.8293219  57.9385090  35.7383752
  44.1148853  57.9225969  36.6518474  44.2227411  58.7333441  35.3782558
  28.9553738  70.8400488  38.9029860  29.7177291  70.2613831  38.8889241
  28.2580471  70.3082275  39.2865682  44.0924644  74.8848867  38.3363700
  43.7062788  74.0710831  38.6601233  43.7832260  74.9540234  37.4331403
  39.9809241  36.3375640  56.5395737  39.2335153  36.9290233  56.4513206
  39.6200752  35.5565572  56.9591570  24.4962525  45.7986784  31.5313697
  25.0222373  45.0011778  31.4716482  24.6132016  46.2267971  30.6832719
  35.1392984  48.6960030  20.3332424  35.3658080  47.8807831  19.8856449
  35.1288271  49.3552923  19.6393681  63.8126802  25.0379300  47.5714350
  63.7238359  25.4572797  48.4272909  63.9013529  24.1056657  47.7695608
  34.1239190  54.2233706  49.4084740  34.0459967  55.1182747  49.7390795
  34.8585129  53.8509512  49.8962355  25.0006199  42.8190041  63.2052708
  24.9333525  43.5805273  63.7812805  25.7485962  43.0116653  62.6398993
  39.9248123  34.4511437  13.9967906  39.5225310  35.1899719  13.5401356
  40.4283857  33.9973330  13.3209944  62.3964787  82.8832531  81.9691467
  61.5012169  83.2030773  81.8575573  62.4792099  82.1751595  81.3304043
  39.8890090  40.6622124  51.9984150  40.2436447  40.0476789  52.6409197
  39.3750310  40.1164389  51.4032793  11.6683030  43.3464003  54.8210955
  11.0723591  43.3500290  54.0720463  11.6418409  42.4456453  55.1438522
  44.9979353  64.5732689  46.1460590  44.5011044  64.0881729  45.4872131
  45.6244040  63.9366817  46.4903259  38.8600087  56.7803288  48.7084150
  39.1758776  55.9032393  48.9256287  39.4405103  57.3699522  49.1896582
  41.0489464  52.8425646  59.2375326  40.2224588  52.8628778  59.7199631
  41.7232418  52.8666878  59.9164867  22.1876383  82.3421955  20.7107043
  23.0543375  82.1018314  20.3831577  22.3620939  82.9721069  21.4099979
  23.1250048  58.0344868  45.4082775  23.1211281  57.3629665  44.7261667
  22.5097179  58.6975145  45.0951481  40.2859211  35.7845902  69.6262646
  40.2867317  36.5598106  69.0647793  39.4790030  35.3235936  69.3969297
   5.7371628  89.1061211  46.1689901   6.6766655  88.9230442  46.1758804
   5.6687385  89.9940205  45.8180094  36.6658878  49.1027641  22.8215957
  37.5063777  49.0364313  22.3683763  36.0123062  48.9735842  22.1342993
  13.4267652  55.6002235  24.3648481  13.0209076  56.3734913  24.7567320
  14.0341330  55.9522867  23.7141657  24.3610406  91.1297321  47.8027248
  25.2441335  90.7687092  47.8804445  24.2908192  91.7493248  48.5289478
  13.7423742  91.5417290  68.6046553  12.9555762  91.1552048  68.9890766
  14.2487681  90.7923508  68.2912397  36.2410665  28.9698029  30.3547955
  36.4691663  29.3928671  31.1825752  36.3288641  28.0333066  30.5322695
  53.8628244  82.4165249  38.9938045  54.7329760  82.7975178  39.1117358
  53.6473751  82.0424080  39.8481154  23.3814549  79.8998022  31.4168549
  23.0852389  79.4095564  30.6499481  22.7258945  80.5882168  31.5289378
  28.4265590  72.9604244  43.5133362  28.8177252  72.0910645  43.4271145
  27.9856300  72.9414988  44.3627214  25.2873778  85.4657364   8.2357842
  25.2420998  86.4072800   8.4021461  25.0265646  85.0633240   9.0642005
  32.7261448  76.1442709  41.0517740  32.1011257  76.8669605  41.1092472
  32.5141716  75.7094002  40.2258301  42.9979658  66.6367626  51.3857937
  42.9774523  67.2652149  50.6640863  42.1924877  66.8066025  51.8742466
  33.5639381  62.5339079  38.4225225  33.1528139  61.6741180  38.5118437
  34.5032644  62.3565197  38.4718323  12.1312356  51.8909645  11.9226348
  11.1822033  51.9754887  12.0144224  12.4891865  52.4407578  12.6196527
  25.6333137  97.0197487  26.3931489  25.0765252  96.6407585  25.7130146
  25.6780624  97.9506588  26.1748695  34.5441341  51.5240860  34.1933441
  33.9588046  50.8284235  34.4928050  34.2239475  52.3120642  34.6324325
  32.7260709  90.7449532  65.4145050  33.6679029  90.9057140  65.3567219
  32.5573158  90.6442356  66.3513136  56.3747740  34.4054675  69.1137838
  56.4977837  34.3154216  70.0587654  56.2144375  35.3397655  68.9810753
  48.0425549  52.0618534  34.0134764  47.6093435  52.5872564  34.6861672
  48.9768267  52.1622276  34.1959357  30.4495478  69.2645216  46.3674164
  31.3303566  68.9388561  46.1820793  30.3859782  69.2530584  47.3224354
   8.5621530  45.8395815  35.4875088   8.9995921  46.6835403  35.5998063
   9.2653078  45.2350616  35.2500987  44.6200991  80.9530830  33.6192465
  45.1249933  81.0439301  34.4273663  45.0072527  80.1966000  33.1787062
  17.9861438  61.2344742  69.8312807  17.4131835  60.5437183  70.1641512
  17.4264622  62.0097971  69.7880793  51.8929768  91.5937901  46.4818525
  51.6372490  91.0252094  47.2081804  51.3732338  91.2835217  45.7403421
  14.3213141  73.7152195  24.0313077  14.2017889  73.0671787  24.7255635
  15.2706528  73.7903023  23.9346075  37.5485849  87.1997833   9.5536268
  37.5088286  86.6228104   8.7908947  37.5206041  86.6066170  10.3043616
  30.3387856  91.5485287  34.0502691  29.9418020  91.9510174  33.2778454
  31.1455870  92.0440960  34.1906548  13.6089599  75.1273203  48.4740686
  14.3959928  75.6705427  48.4326363  13.7057030  74.5098257  47.7491045
  57.0994806 102.1116066  20.1626062  57.3931503 101.4397144  20.7778740
  56.9981194 101.6475296  19.3315864  45.4534483 103.2322311  19.2081785
  46.2511969 103.3753681  18.6989272  44.9874163 102.5431633  18.7346530
  52.6315117 101.5294838  43.7869740  52.7805424 100.5892563  43.6869812
  53.3907938 101.8412971  44.2794132  28.0101609  77.2365618  34.0486336
  28.3172345  78.0724192  33.6975241  28.1122303  76.6201639  33.3234644
  48.9419746   0.0211798  38.5602379  49.5435429   0.7082899  38.8469982
  48.2057428   0.4940462  38.1721830  27.9459667  76.3969421   9.0287334
  27.7876878  76.7415619   8.1498605  27.8101206  77.1467161   9.6080542
 102.8646278  99.3674946  26.6906333 103.2381630 100.1845455  27.0209742
 101.9711685  99.3565655  27.0339203  33.9747882  90.8971405  27.7833700
  34.2834234  89.9915409  27.7541351  34.7491908  91.4208603  27.5778127
  87.6836681  78.3467245  25.2493095  88.1516361  78.7126398  24.4987464
  88.3678818  77.9479647  25.7869601  30.0102949  55.9508276  50.1376104
  30.5625415  55.9380198  50.9193325  30.0659513  56.8520069  49.8197842
  23.6129284  76.3620806  35.9464741  24.5469141  76.2106514  36.0912943
  23.4049582  77.1182299  36.4953089  20.0158715  87.9368877  74.9923944
  19.9256968  88.3399296  74.1288757  20.4495716  88.6042976  75.5241013
  41.0913420  69.3408060  24.6395206  41.9696951  69.7195911  24.6040940
  40.7022667  69.5585489  23.7925005 104.3021011  62.6563168  66.5312529
 104.0891647  61.7276812  66.4389706 104.2436886  62.8231096  67.4720001
  37.8768110   8.5712665  60.5576754  36.9705081   8.5355884  60.8635712
  38.1940579   7.6722354  60.6432819  69.0407991  86.3696003  70.9444523
  68.8072443  86.6971111  71.8130255  69.5302057  87.0868587  70.5416441
  27.0202780  88.1585217  35.2458596  27.4597526  89.0086746  35.2643919
  26.0891962  88.3685970  35.3179026  35.2989078  97.1983719  63.1710958
  35.4055405  96.7154789  62.3515368  36.1869264  97.2781467  63.5193634
  36.0883737  78.2685804  77.8321362  35.5822515  78.4217358  77.0342541
  35.5080652  78.5463238  78.5408926  68.8875818  98.9761639  19.6714425
  68.7827206  99.8885822  19.4017506  69.7693014  98.7408543  19.3826032
  44.7815752  62.0001650  62.5001526  44.7761822  61.2719679  61.8789196
  45.6033754  62.4585438  62.3247528  68.0102348  87.7242756   6.9321024
  67.1495914  88.1431484   6.9237971  67.8693581  86.8965912   7.3917991
  36.6295099  70.1624537  54.1722298  35.9138656  70.6478167  53.7617302
  37.3223066  70.8121681  54.2911339  66.6572666   3.6097199  44.0471315
  67.5865412   3.6439613  44.2740917  66.2025261   3.7273377  44.8811626
  21.4463615  74.9335384  59.6243000  21.1407804  74.8235226  60.5247164
  20.6485009  75.0837469  59.1172600  50.2664804 100.3596783  72.4760485
  50.3683662  99.5861149  71.9215679  49.3639183 100.6425476  72.3290443
   6.8393159  88.9163303  39.5691681   6.7846394  89.4213104  38.7578464
   6.3225037  89.4185638  40.1991653  39.9741769  58.7178087  22.8798556
  40.0844765  58.9787579  21.9655418  40.8388901  58.4049797  23.1456327
  65.9388685  92.1513557  27.8587794  66.3550901  92.7131844  28.5124922
  65.0446224  92.0331192  28.1790590  53.1790066  80.8405399  64.9775457
  52.7535915  81.4501286  64.3745041  53.3588934  80.0647068  64.4465637
  14.3456340  83.9954376   2.0071808  13.8044202  84.4285774   2.6672655
  14.0567422  84.3719673   1.1759190  56.3734674  37.6297593  20.0493455
  55.7502699  37.1146250  19.5370054  56.6404200  37.0458055  20.7592511
   8.6838078  96.1180019  34.0692830   9.2199576  95.5014324  34.5678997
   9.1756976  96.2641048  33.2612419  29.4527316  30.9190059  31.3893676
  30.3504133  31.1842394  31.1892438  29.4452500  30.7961917  32.3386264
  56.1920071  90.7934093  47.0513725  56.7446709  91.3353348  47.6144934
  55.7850599  91.4137840  46.4466000  17.6810944  91.0421658  64.7051859
  17.6574528  91.9545078  64.4165611  16.7645109  90.7662964  64.7025776
  37.3870254  74.9630547  42.1251488  38.2313967  75.4108763  42.0729256
  36.7764688  75.5503607  41.6795874  65.7778645   1.3271360  58.7991762
  65.8131742   1.2886198  57.8434038  66.1335850   2.1885543  59.0174723
  35.5473185  68.2791662  33.1749058  34.8337913  68.5306072  32.5884891
  36.0215116  69.0944099  33.3384418  19.3363380  96.2733746  55.7965374
  19.2011940  95.3561401  55.5585289  19.8219407  96.2379360  56.6206551
  41.6264772  86.0418415  50.0818110  41.9235992  85.9560204  50.9876728
  41.7486525  86.9687366  49.8764658  25.1616979  79.4119978  33.3287311
  24.8787975  78.4979534  33.3554983  24.5244002  79.8433971  32.7595401
  33.4241271  94.6135330  42.6368761  32.7656078  94.8730946  41.9925070
  34.2485809  94.9498367  42.2855759  39.8225951  77.5526142  32.0504522
  40.6052637  78.1029797  32.0779753  39.4154215  77.7571869  31.2086749
  30.4223037  57.3282576  43.3916998  30.5188704  56.4387321  43.0516195
  30.8262944  57.8844881  42.7256441  41.2190580  98.3195686  15.9515846
  41.2186956  97.3863411  15.7387209  40.3180456  98.6015606  15.7938290
  45.4849672  76.8500376  39.2374492  45.0871563  76.0584545  38.8749886
  45.3588963  76.7700863  40.1829386  15.6093311  71.6877079  51.7729521
  15.6933486  71.7671108  50.8227587  14.6771741  71.8231869  51.9431305
  23.3171606  95.8533192  34.3576169  23.7608004  95.2996731  33.7150526
  22.3900747  95.7915401  34.1275573  53.5626268  80.8092499  12.4769223
  54.3602943  80.5346394  12.0246518  53.1944609  81.4941025  11.9186604
  40.6945705  46.2559986  37.0707417  40.8518696  46.9323158  36.4118910
  40.2478886  45.5564356  36.5939641  38.2359338  41.2393379  19.8605072
  37.3197079  41.5040064  19.7785652  38.5040760  41.0247469  18.9670420
  44.6600962  82.0224094  48.3617544  44.2711258  81.4694309  47.6841497
  44.2356396  82.8729916  48.2496023  45.5249023 104.2017746  64.9941635
  45.1335144 104.1386890  65.8654070  45.0905752 104.9530983  64.5903063
  41.2828636  73.8394737  54.9474192  41.1136723  74.0129328  54.0213966
  40.9641314  74.6206379  55.3995562  40.7382393  60.1017237   4.3069485
  40.8117342  60.9874201   3.9514577  40.7672071  59.5319748   3.5383296
  55.6029320  76.3985014  75.6878042  55.6240225  75.4419708  75.6588364
  56.4990997  76.6512156  75.9097290  50.2986717  70.7253551  29.3963695
  49.8861361  71.5305901  29.0838933  49.5953035  70.2532387  29.8420286
  56.5568304  50.4084158  25.0345397  56.7173338  51.3013029  24.7292161
  55.6862450  50.1936150  24.6996117  18.3430982  86.1224461   2.1571846
  19.2514884  86.1488152   1.8565810  17.8262639  86.0685635   1.3533118
   8.7010801  79.7302008  30.4265261   8.0434811  79.9719238  29.7743249
   8.1928402  79.4107103  31.1720777  72.6676893  77.5698090  14.0457761
  72.7444601  76.6208267  14.1446006  72.0038939  77.8244400  14.6866894
  65.9015942  81.3856506  47.2628880  65.9894753  80.5778980  46.7568874
  64.9573326  81.4984703  47.3718834  40.9490633  24.0206075  65.9689140
  41.8032789  24.3116713  65.6498098  41.1319160  23.2020950  66.4302540
  72.0446539  63.6307049  11.4321244  72.6993227  64.3287611  11.4510930
  71.2876797  63.9998388  11.8870556  16.9213295  30.0495386   6.4922875
  16.8410897  30.6896043   7.1994698  16.2899470  30.3396082   5.8339196
   4.1216597  70.8070803  50.6251144   3.8756990  71.5116549  50.0256920
   4.7473937  70.2786398  50.1296949  46.8698740  75.2579308  44.9541998
  47.0493460  76.1966085  44.9002838  47.7109766  74.8664045  45.1897478
  85.5748558   5.7611799  51.0907650  86.2245464   5.6228375  51.7799616
  84.7697926   5.3792185  51.4403534   4.7961214  78.3503389  26.4308691
   5.4017001  78.9976311  26.0695910   3.9389753  78.7742662  26.3882279
  75.0918388  11.8244255  91.5363026  75.7612514  11.5235353  90.9218216
  74.6761274  12.5646031  91.0940838  87.3499298  86.1433411  35.1958394
  87.9361153  85.9186172  35.9184122  87.0166206  85.3008842  34.8869491
  30.1729107  90.7831955  42.5822353  30.8148789  91.4603329  42.7957916
  29.9134469  90.4231358  43.4303331  36.3289928  74.0839767  51.2907743
  36.6256857  74.9752283  51.4748240  35.6972980  73.8938046  51.9843388
  72.0288181  97.9987526  49.3220282  71.1746836  98.1923389  49.7083044
  71.8259430  97.6565170  48.4514236  66.9570971 106.5076065  70.0868034
  66.0445213 106.6387939  70.3441429  66.9079924 106.1802292  69.1886663
   1.5822376  84.7449112  37.0205402   2.3837709  84.3277073  37.3363161
   1.6437671  84.6908092  36.0668540  35.1806545  97.9974461  17.8735769
  35.2098656  98.8856030  17.5178254  34.6764708  97.4984646  17.2308886
  47.6918459  82.1094990  57.7138710  46.9513702  81.5118885  57.6099539
  48.3256292  81.6171169  58.2355165  45.3315687  94.1757774   2.6197347
  45.5659628  94.0465164   3.5387471  45.7324886  95.0128841   2.3857504
  27.7563691  69.8693895  45.4555750  27.6663327  70.7577038  45.8005762
  28.6753273  69.6466589  45.6043673  43.3735609  81.2665081  37.5198126
  43.7523365  81.5862560  38.3386636  44.1170597  81.2044144  36.9201589
  50.3582001  82.1554470  37.3870826  49.4572830  82.4149418  37.1940994
  50.5539751  82.5747776  38.2249761  32.0943880  91.7950630  31.3638520
  31.1633420  92.0124149  31.4101291  32.5289655  92.6342297  31.2116408
  42.3596096  91.3451862  38.1037235  43.1220245  91.5120029  38.6579156
  42.6975060  91.3968563  37.2096372  30.3147411  98.9236641  58.5605383
  30.4788637  98.7788773  57.6286936  29.3606639  98.9297771  58.6375761
   5.8299810  94.4899368  18.2234049   5.7791996  93.5838795  18.5279071
   5.5332112  95.0104713  18.9698672  54.8621273  83.8842392  24.5973825
  54.0418196  83.4521866  24.3593621  55.4462242  83.7128448  23.8586760
  71.6559315  81.5622044  33.2565928  71.9343996  82.2791481  33.8263941
  71.5684605  81.9635391  32.3920083  59.0968132  95.7018948  17.3651838
  59.4502544  96.5709782  17.5549459  59.8626137  95.1780319  17.1299148
  39.6722984  65.9252596  20.3962922  38.9576101  66.1110163  21.0053468
  39.3501496  66.2313414  19.5484936   0.5106539   3.1052139  90.4801941
   0.3600766   2.1985206  90.7475281   1.4621681   3.1781012  90.4057598
  47.1479416  86.0247993  66.5572643  46.3121796  85.6562710  66.2710476
  47.8088427  85.4790688  66.1310959  15.5398202  64.1708946  21.0553145
  15.0586832  64.9954081  20.9852195  14.8822284  63.5326052  21.3317084
  40.6060076  79.2640305  50.1228905  41.4343834  79.5336914  49.7262621
  40.5688667  79.7444439  50.9499645  64.1894341  88.3141613  43.2580662
  63.3388615  88.4955883  42.8582573  64.8014402  88.8784218  42.7855253
  40.4211903  86.2730217  40.5127954  39.8599648  86.7049599  41.1567545
  41.2627506  86.1724854  40.9576511  90.3858471  92.5457287  41.9216585
  90.0373840  92.9782581  42.7012253  91.2672997  92.2708511  42.1740866
  21.6682553  69.7706270  41.2997532  22.3432803  69.3194437  41.8067074
  21.6510868  69.3102932  40.4606915  21.2186503  74.0886545  14.5580471
  20.8469820  73.7439632  13.7460852  20.8624244  74.9743843  14.6274531
  14.0116966  19.9747133  32.1711564  13.9200079  19.5304739  33.0140543
  14.7395730  19.5254195  31.7415476  26.6362596  95.0618744  50.2449274
  25.9257722  95.4879761  50.7243824  27.4024487  95.1666641  50.8090258
  14.0717053  69.9518061  28.3545804  13.4616053  70.6439590  28.0997658
  14.7021413  69.9115276  27.6354408  68.9830923  85.0458717  38.5963893
  68.2740927  85.5833530  38.2433105  68.6200428  84.6660042  39.3964696
  41.0394478  60.1626968  48.4468412  41.5397024  60.9372854  48.1899643
  41.1686325  60.0970650  49.3930101  37.7481961  55.1766491  58.0860996
  38.1407118  55.3530312  57.2310829  38.3796048  55.5244541  58.7158489
  35.1569462  73.9016342  47.4604034  34.6598125  74.3118191  46.7527056
  35.9601521  74.4188833  47.5199318  11.4437342  74.4772673  61.3998747
  10.5069494  74.4236279  61.2106895  11.5633774  75.3512383  61.7714834
  98.8906002 104.4605255  18.1191194  98.1590843 104.9869537  17.7966487
  98.5270405 103.5806370  18.2184112  40.4266024  95.3612232  15.0296891
  40.0522804  95.1808834  15.8920062  39.6876550  95.2818680  14.4264567
  30.6469393  88.6308479  21.7740536  30.7226205  89.5849133  21.7581677
  29.8714828  88.4609604  22.3088789  30.9235334  76.4320803  16.0760391
  31.2220550  77.3292971  15.9273124  30.3079534  76.5023184  16.8056691
  62.2139835  90.4516602  59.0491962  61.6351509  90.5379009  58.2917356
  62.1723557  91.3049984  59.4808292  23.7253928  61.6976023  54.0181875
  23.2483649  62.4632406  53.6980677  24.4143915  61.5560055  53.3689880
  39.5092440  74.5592833  70.3644228  40.1053905  75.2346373  70.0407887
  39.6673179  74.5325041  71.3081026  26.2322855  76.8720102  89.3981838
  25.4416633  77.3762989  89.5901394  26.8200636  77.4992085  88.9770412
  50.6907225  68.2089853  16.2031806  50.7785177  67.3976803  16.7034864
  49.7679424  68.4470320  16.2928879  40.2159214  64.8353291  34.1220784
  40.3903294  64.2415428  33.3918500  39.7889853  64.2867613  34.7801304
  54.9320364  93.3259106  65.0967884  55.2162409  93.4414673  64.1900873
  55.4228067  93.9851475  65.5874872  38.9965487  79.8065662  48.0015373
  39.5804286  79.6483421  48.7433434  39.0646172  79.0135908  47.4697590
   3.2989961  33.0884671  90.9057522   2.9978207  33.7868071  90.3245068
   3.5875204  32.3928380  90.3149128   1.7625448  72.4627018  36.1375713
   2.0794159  71.5607786  36.1862135   2.4900225  72.9517412  35.7530618
  47.5984573  89.2553234  29.4205284  46.8859100  89.8847866  29.3097186
  48.1455326  89.3736935  28.6440468  71.0800362  85.9102535  18.5719454
  70.1459122  85.7379627  18.6900878  71.1258030  86.4531040  17.7848947
  49.1811514  75.5037212  55.0149107  49.5771122  75.8424854  54.2119884
  48.8967085  74.6186924  54.7867632  26.7155886  52.6841068  37.7813101
  26.3291383  53.2161379  38.4768915  26.4969087  51.7831373  38.0193448
  66.1225462   6.4817643  33.1631160  66.0038996   7.3198414  32.7161479
  66.3764429   5.8738184  32.4687314 106.8608189  38.4938478  89.3177032
 106.6260147  39.4203925  89.2665672 106.0566807  38.0582142  89.6002102
  19.3033624  85.1973534  12.4549222  18.8855052  85.3834152  11.6140842
  20.1971722  84.9417782  12.2268462  22.8136277  92.0182610  35.1660180
  23.4886456  92.5201035  34.7091317  22.1443892  92.6651001  35.3895259
  55.5452538  81.2004757  53.2868004  55.2849865  80.4041481  52.8238106
  55.2891684  81.9127464  52.7008581  40.0431490 102.4322891  29.4849372
  39.9838495 102.3552895  28.5326838  40.7137680 103.0997276  29.6299624
  29.6647930  72.9155588  18.0338430  29.2389798  73.1875277  17.2208571
  29.6500754  71.9589520  18.0035365  57.2242498  93.6075401  45.1396894
  57.7921104  93.8647270  44.4133186  57.0598555  92.6754570  44.9967670
  39.6959758  92.3748398  51.4222336  39.9004793  92.5959587  50.5136585
  38.8329363  92.7599907  51.5740490  40.9335470  57.6263666  50.6746483
  41.6592741  57.3321486  50.1242018  41.1943197  57.3856497  51.5636253
  21.5476108  57.2928047  21.1825776  20.8605480  57.7769613  20.7245708
  22.3325086  57.8296518  21.0731959  27.8435135  81.8580246  48.7784624
  28.6215544  82.3845768  48.5950613  27.7491260  81.2945843  48.0104446
  38.1045413  81.5330505  34.8123789  38.9045811  81.9164658  34.4529915
  37.6284242  82.2760773  35.1831245  45.7611942 106.6743851  34.0783191
  45.5366421 105.8166599  34.4390202  45.8915806 106.5144730  33.1436205
  35.4938054  86.3964939  46.6889620  35.3132629  86.7847538  47.5450563
  36.0018516  85.6093597  46.8852901  36.2811041  93.0496597  13.7739921
  37.1861887  93.2067299  13.5049498  35.7669950  93.6725712  13.2602644
  54.6826410  87.4465942  45.6228733  54.9801493  88.0641365  46.2909794
  54.3105364  86.7176151  46.1192226  93.6359119  75.4284811  10.2393091
  93.1956577  75.8358717  10.9852564  94.4195557  75.9611273  10.1035726
   7.4503237  15.1179636  91.6445732   6.6948020  15.1025212  91.0570526
   7.3759139  15.9518766  92.1085548  57.7260828  74.7150850  49.8635626
  56.8549538  74.9168921  50.2050924  58.0401182  75.5444098  49.5032406
  10.7012522  60.6301498  66.6599751  10.0962257  61.3019991  66.3456535
  10.2537954  59.8028374  66.4823103  73.5152626   5.1376104  45.1300287
  73.0095434   5.1760501  45.9418201  73.4664917   6.0252780  44.7752047
  10.2735472 105.1759720  74.0590096   9.9918604 104.9708557  74.9505329
  10.4275608 106.1206627  74.0678644  67.5122738   2.0235291  30.4522634
  66.9118357   2.2227016  31.1706209  68.3105612   2.5063017  30.6665087
  54.1532803  57.9511929  64.8193884  54.2248201  57.1709633  65.3692484
  54.2341757  58.6832857  65.4307222  56.6742420   5.8144748  72.3284721
  56.4508247   4.9922240  72.7646112  56.6523886   6.4693516  73.0262470
  21.7499042 101.4901543  39.9443960  20.9412074 101.9855213  39.8145676
  21.5733862 100.9389877  40.7068205  54.3925714  91.3250065  44.9622726
  53.7242508  91.0583782  45.5935335  54.0410614  91.0563183  44.1134644
  34.2823839  56.6205454  36.5252042  33.9924145  57.4769020  36.8395352
  35.1082039  56.7977762  36.0748196  38.1383014  86.2681293  34.2355585
  38.0843949  85.5176830  34.8273039  38.7933016  86.8410110  34.6343184
  22.1918297  61.7126894  43.4541798  22.5362182  62.5261164  43.8229084
  22.2960114  61.8155289  42.5082397  22.1686172  57.5046492  36.7990971
  22.8634214  58.1452084  36.9512963  21.6975474  57.4600029  37.6311612
  10.3535330  78.9302588  72.2508192  11.1706531  79.4154549  72.1362257
   9.7402835  79.5741940  72.6050854  27.6738691  78.8120937  10.5155051
  27.9482293  79.3148613   9.7485751  26.7646909  79.0738630  10.6607938
  32.6057410 104.8527431  19.0078580  31.6849065 104.6638680  19.1884732
  32.6101160 105.1878166  18.1112313  29.7193432  80.7330990  16.8572807
  30.3194332  81.1983681  17.4400723  28.9238310  80.6159210  17.3765707
  23.7349939  65.9817696  61.5151024  23.4002304  66.8100262  61.1713552
  23.1364536  65.7589579  62.2280788  43.6180449  77.4219084  34.9428082
  43.7648392  77.7393389  35.8338308  43.8603592  78.1594372  34.3828368
  42.0414352  79.3495226  28.1912494  42.8223801  79.2358398  28.7329435
  42.3103333  79.0596724  27.3195219  35.4283261 105.8932972  25.2794743
  34.7969198 106.1203957  24.5968437  35.2425861 104.9764061  25.4820871
  34.3853068  70.5412817  11.2612236  33.6872339  71.0899019  10.9035325
  34.9050379  71.1367416  11.8011677  45.2066612  64.2517233  17.2877777
  45.6329298  64.7624254  17.9760432  45.7002401  64.4599056  16.4945102
  34.5928669  92.4602699  23.1581116  35.4409790  92.3055649  23.5740447
  34.1103363  91.6437149  23.2871008  47.0578098  81.2999725  61.0159588
  46.5198708  81.9483280  61.4703751  47.1780443  81.6615582  60.1378727
  36.9341207  71.8728781  49.8912096  37.0529914  72.2222519  49.0080118
  36.5481329  72.5963354  50.3850269  63.9571905  96.6275978  39.1010427
  63.4201288  97.2064495  39.6420860  63.3664846  95.9170723  38.8511300
  79.8196840   8.7022287  12.1427262  80.5782986   9.2795092  12.0562088
  80.0372124   7.9390240  11.6075325  32.3212767  69.2874098  34.3628168
  32.7317643  68.8562012  35.1123428  32.8894258  70.0346899  34.1757059
  36.9576287  64.7584867  16.4603913  36.4714265  65.5829763  16.4678550
  36.2909746  64.0860271  16.6003907  42.7457285  94.0244102  56.0422945
  42.0701218  94.5350838  55.5962038  43.3643913  93.7897396  55.3506184
  50.0111246  93.8171482  61.2895918  50.0413752  94.3659496  60.5059290
  50.7413435  93.2074451  61.1833525  78.9770317   5.5370581  74.8061180
  79.2938042   6.2805027  75.3191280  78.7434626   5.9136617  73.9576817
  52.1568918  79.4023848  15.8381557  52.7505541  79.1514921  15.1304519
  51.9593668  80.3237247  15.6697774 111.4068317  47.0618534  30.8639312
 111.9750881  46.3702059  30.5249023 110.5907440  46.6137886  31.0863662
 108.8312340  21.7410707  15.5333364 107.9289532  22.0238233  15.3844237
 109.0755844  21.2856674  14.7276473  40.8899069  80.9357738  39.7412372
  40.6537151  81.8565845  39.8533106  40.6167603  80.7254124  38.8482785
  35.0454021  83.7816525  38.6225724  34.7428155  83.8955593  39.5235157
  34.3568039  84.1756725  38.0870223  60.8992672  35.4013228  19.6384513
  61.3678122  35.4867840  20.4687476  60.7767200  34.4583821  19.5285439
  94.2647552   3.5036123  28.3419967  94.2403698   3.9356399  29.1958046
  93.8540840   2.6521969  28.4925675  84.6055508 100.8821774  16.8740106
  83.8338757 101.4484310  16.8632710  85.3402328 101.4755630  16.7179179
 104.6140766   0.5331310  42.0983028 104.5226765  -0.0139327  42.8784275
 105.3615761   0.1605185  41.6307163  47.2529078 101.2654305  27.7976823
  47.9348898 100.5938339  27.7885246  47.7322102 102.0937634  27.7784920
  30.9608006  83.5407925  32.1842813  30.2017951  83.5296535  32.7673936
  30.9214497  82.7025127  31.7238784  40.6662560  97.2937870  71.2315178
  40.4991865  97.7060699  72.0790720  40.8758307  96.3844585  71.4446640
  65.2740717  88.0962658  67.2442389  65.5458307  87.5133610  66.5352964
  64.6680450  87.5712204  67.7670193  63.6241913  96.0095978  47.5300884
  64.5791197  96.0082531  47.4641895  63.4333992  95.4160976  48.2564402
  57.4806118  78.2445574  67.4957466  57.1139002  77.8563356  66.7013693
  57.7973366  77.4973583  68.0033016  30.5768442  71.1154461  71.1030293
  30.9026265  71.1090469  72.0030594  29.9055886  71.7977953  71.0961246
  70.1052141  60.7460785  42.0921373  70.1887131  61.6809320  42.2800589
  70.5813265  60.6234121  41.2708569  59.9201727  84.4223690  39.3818927
  59.7669983  83.9994717  38.5369492  60.7657909  84.0797901  39.6713877
  97.2248650   7.7091527  40.9549522  98.1207371   7.4027646  41.0955381
  97.2653866   8.6512870  41.1191845  83.9486599   0.2316292  36.5767670
  83.1699085   0.0453463  37.1012497  83.6739635   0.0696412  35.6742525
  45.2524614  61.1540985  24.5428967  45.6287098  61.7786980  23.9227772
  45.0225782  61.6836023  25.3064466  59.4901943  99.2345619  19.5792222
  58.5609198  99.2855072  19.3554282  59.8939753  99.9515533  19.0902328
  66.5919065  93.1186199  56.3783312  67.0784521  92.5084686  56.9325972
  66.6821671  93.9646721  56.8168354  97.2369671  10.4473209  41.3628387
  96.5130329  10.7602036  41.9052935  97.8909683  11.1446106  41.4108133
  35.6245923  73.1243992  64.3390274  35.8930230  74.0213728  64.1399908
  35.3230977  72.7731276  63.5012102  74.9797583  97.7261734  71.4947128
  74.5980787  98.2324600  72.2118092  74.7096777  96.8243599  71.6679573
  47.2180271 100.8496761  36.9694519  47.0450735 100.4783535  37.8345728
  48.0197096 101.3600349  37.0837736  77.4971485   1.0825881  38.1590796
  76.5908813   0.8795317  37.9273868  77.4503422   1.3860922  39.0656805
  55.8305216 102.0692348  38.2192945  54.9476099 101.8709373  38.5313416
  56.3482332 101.3014126  38.4614968  58.3343506  76.4648342  19.2519939
  58.0757332  76.0130978  20.0552893  58.1833315  75.8237267  18.5574412
  39.8677564 105.1406479   0.3188355  39.4957471 104.5203495  -0.3081128
  39.1595531 105.7612419   0.4907274  13.9334810  82.0810032  54.3100691
  14.2837453  82.9435539  54.5326614  13.7988615  81.6518307  55.1550102
  93.0107021  10.5985832   6.4996034  92.4360275   9.8342419   6.4575773
  92.4199486  11.3336706   6.6635883  31.5145087  65.7746935  34.4092488
  32.2462916  66.3408279  34.1638565  30.8759665  66.3671350  34.8061180
  17.7983105  84.6871471  44.3409681  17.9789650  84.3486023  45.2178907
  17.1514463  85.3788853  44.4798422  11.7792535   2.5387937  21.7973137
  11.1703777   2.2254464  22.4661303  11.2462485   3.0963555  21.2305140
  34.5183063  85.7132339  55.5782318  34.2323017  85.8671570  56.4786434
  34.4763637  86.5746784  55.1630354   2.3147227  15.7737839  63.2552528
   1.6631070  16.4363551  63.4846592   1.9075122  14.9426925  63.4995890
  16.5216124  69.8642588  54.8937654  16.0454118  69.0476227  55.0439739
  16.0963023  70.2523518  54.1290903  32.2804093 107.1508694  73.2505608
  32.3808670 107.8319550  73.9155912  31.7931676 106.4551544  73.6919355
  79.4006968  75.5360746  23.5276985  79.8486471  74.7719145  23.8905096
  80.0598717  76.2299538  23.5433984  77.8362131   5.9108174  10.1654661
  77.7272177   5.3516877   9.3962282  77.1184158   6.5413469  10.1068974
  28.4604812  65.7871532  37.4750996  29.3390751  66.1318636  37.3154831
  28.4017229  65.0127506  36.9155645 113.0141258  61.9435358  82.6407242
 112.4085903  61.2327528  82.8513050 113.8380623  61.5026999  82.4333000
  31.9087720  87.1244907  41.7881060  31.0544181  86.8905449  41.4253664
  31.7084813  87.7325439  42.4997187  99.3034935  25.3669000  92.3204517
  98.3717632  25.2166057  92.1606731  99.5447254  26.0554886  91.7008686
  45.2363825  88.5028744  44.2763567  44.9228048  88.6582375  43.3854198
  44.8025608  89.1739082  44.8033810 106.7685795  14.7783852  51.3490772
 107.5721741  14.8225188  50.8308887 106.8466091  13.9621878  51.8430042
  48.3284998 107.5129032  17.6138830  47.4316311 107.3294449  17.8935301
  48.6966801 106.6530132  17.4107552  98.7201881   2.4002625  71.9795179
  98.5041428   1.8226255  72.7115679  99.6431446   2.2224979  71.7984581
  30.7539558  62.1698713  41.8985033  31.5416861  62.2123623  42.4406385
  30.1839066  62.8536129  42.2503233  61.6930056 106.4221096  62.7063560
  62.2435236 106.6032600  61.9445467  62.2616959 106.5891171  63.4579754
  23.4966946 101.5560246  42.7062654  23.8854551 101.7610359  41.8559313
  23.1333899 102.3877621  43.0103111  14.6841526  28.1234622  85.9149170
  14.9325907  28.9921522  85.5988693  15.1144671  27.5171447  85.3120613
  51.9168234  86.1078167  56.5181351  52.2615242  85.9347534  57.3941851
  51.1828566  86.7048836  56.6631794  59.3335438  69.5646429  29.6301126
  58.9512730  70.4336119  29.7525692  59.8935747  69.4392252  30.3961849
  51.2261820  84.1091728  16.4032423  50.3449011  84.0637112  16.7740631
  51.2190199  84.9006748  15.8650017  67.7976322  12.5180137  77.9511023
  67.2239923  11.7539430  77.8930950  67.1997070  13.2602882  78.0391026
  50.3252316 102.5443745  16.0299850  51.2482405 102.5305939  16.2831676
  50.3337049 102.3908138  15.0852215  96.8860817  19.2712283  49.1830206
  96.7864609  19.0960217  50.1187611  96.0037994  19.4935393  48.8857079
  64.5762587  96.9915295  50.2515697  64.8626947  96.1680031  49.8566055
  64.4883919  96.7923164  51.1836767   9.5309293   8.3010185  41.3623571
   9.1412973   7.5643533  41.8332577  10.0828469   7.8935981  40.6948042
  24.5646143  85.3364372  56.0387802  24.9280524  84.5084953  55.7246876
  23.8295364  85.0794983  56.5954399  85.1098919  12.8961158  12.8713691
  84.4784927  12.4717212  13.4522748  85.1726151  12.3103464  12.1169341
   0.9518173  13.6050844  33.8309145   1.4237687  13.6642694  34.6615720
   1.6250944  13.7353063  33.1631041  60.6676626  84.3765259  27.8808570
  60.9356737  83.6385345  27.3333359  60.3509569  83.9727020  28.6888528
 107.4093437  10.0237179  25.8680677 106.5874195   9.8798198  26.3370728
 107.3051071  10.8834469  25.4603529  83.3742714  92.2485924  51.5034103
  82.9510307  91.6734028  50.8660269  83.4291935  93.0960751  51.0618353
  65.8473492  14.4927800  18.9884889  65.5810928  14.8052502  19.8531866
  66.6280365  13.9644361  19.1546655  47.2480440  96.7268467  23.5204697
  46.3873720  96.3311863  23.6580873  47.0885563  97.4369907  22.8987908
  69.0299273  96.3329220  37.2482300  68.7890911  96.7084312  38.0951190
  68.2076168  96.2969875  36.7596102  45.6808090  94.5915604  26.3607717
  45.1409674  94.3046951  27.0973253  46.0080290  95.4516220  26.6243148
  65.6486845   2.2875686  32.5750756  64.7563124   2.2917192  32.2288251
  65.5478811   2.0393167  33.4940100  39.8349094 104.8402691  54.3297386
  40.1631546 103.9686871  54.1087484  40.0380278 105.3744888  53.5618973
  20.2736330  74.7904968  43.2549095  19.5908022  75.1828623  43.7989902
  20.1938105  75.2364922  42.4117279  67.0506096   8.9576900  16.2018323
  66.5739775   8.9355862  15.3720355  67.0248938   8.0542147  16.5169561
  78.4099627  73.4080029  61.0119820  77.8338861  73.0008793  60.3649759
  78.9759541  72.6960659  61.3103580   4.1171923  18.0814946  75.5629444
   4.7836792  18.1653249  76.2448549   4.5153072  17.5079393  74.9081373
  32.6061153  92.3001385  53.4921837  32.1597123  92.8541470  54.1325188
  32.3286104  92.6440907  52.6431131  29.2088842  95.8048916  83.3989334
  29.8128891  95.0663185  83.4759235  29.7494364  96.5230656  83.0699158
  41.1727810  97.9113197  47.8726530  41.1343908  97.7399731  48.8136053
  41.7129755  97.2031403  47.5220776  76.0629225   7.4060488  37.7823830
  75.8468580   6.6430432  37.2463131  76.9694328   7.2598672  38.0527472
  86.6810989  15.4928553  19.5071173  86.7243767  15.8479309  18.6192656
  85.8275509  15.0619018  19.5513880  54.0063763  72.0580292  59.7795725
  53.8454723  71.2473345  59.2967558  54.6637201  72.5201511  59.2594051
  57.1004963  83.4401798  65.4629993  56.4605808  82.9074955  65.9352160
  57.5506830  83.9360142  66.1468983  87.8097534 100.3483772  61.7516851
  87.4723721 100.0135612  60.9208393  87.0829296 100.8503246  62.1204901
  16.2316620  31.4483023  89.5345497  16.6126347  31.1361575  90.3553200
  15.5629039  30.7984447  89.3184948 102.7834415  33.1016850  37.5233936
 102.6625633  33.4018469  38.4242415 103.2883167  32.2926879  37.6062036
  52.5957489  80.1769543  61.3446426  52.1788788  79.4145584  61.7461491
  52.3500156  80.9095478  61.9095755  39.9506736  95.1105976  28.7064123
  40.6652260  95.5640507  28.2591629  40.3617048  94.7158337  29.4754696
  34.3578172 103.9123535  50.3186560  34.8123741 104.7454929  50.1942205
  33.6110091 104.1280556  50.8772087 107.6051903  94.7754860  37.5976825
 107.9142189  95.3456306  38.3017182 107.8946972  93.8998699  37.8540635
  71.3478327  79.7580814  86.1589622  70.9368896  79.5668697  85.3158760
  70.8298349  80.4773808  86.5202427 112.0599270  99.1282654  22.4449468
 111.3243389  99.6558857  22.7559924 112.7291775  99.7688103  22.2040319
  88.4868908   5.1972497  46.5083885  87.7073193   4.6446848  46.4520836
  88.4662914   5.5506045  47.3977375  12.0943940  13.3944976  43.8015270
  11.6614234  12.6331460  44.1876793  11.4951038  13.6884725  43.1154823
  26.9340110  92.5923443  56.3907576  27.6215315  91.9439793  56.5429688
  26.6570687  92.4401665  55.4872227  58.6249924  98.3896160  32.3291993
  59.5424366  98.6574364  32.3821425  58.1665087  98.9874840  32.9196024
  27.5974751  78.3696842  24.1359687  27.5071120  78.1690741  23.2043982
  26.6990185  78.4906340  24.4431758  92.1220112  95.4627895  31.7112851
  92.3602104  95.6151485  30.7967997  91.9353485  96.3349819  32.0586705
  16.3656139  92.3303318  58.3589077  15.5236590  91.8757915  58.3859777
  16.6601694  92.3433304  59.2695665   6.6570771 105.1959419  51.1020899
   6.8213856 104.9498272  52.0124006   6.8818635 104.4137764  50.5981922
  64.7385263  98.3885098   7.7167046  64.2014360  98.5028362   6.9326788
  64.7955799  97.4399662   7.8317171  53.0351448  90.4597664  63.1317806
  53.1292725  89.6232414  62.6761532  53.8635063  90.9128094  62.9743099
  19.6257603 101.8923187  86.9557858  19.5768893 101.4170551  86.1263466
  19.0190327 102.6248074  86.8482304  24.2369080  78.9852571  28.8597989
  24.5334196  78.1277227  28.5549307  24.7814393  79.1687250  29.6253419
  94.2692280  20.8070755  75.9017944  94.7752285  20.3016114  75.2656317
  93.5645676  20.2174544  76.1701822  95.9253311  49.4558048  28.1517243
  95.8465099  50.1951599  27.5489187  96.8547726  49.4302225  28.3791351
  39.0314436  71.8924093  54.1483307  38.6388707  72.7186823  54.4300938
  39.5474052  72.1234798  53.3759165  45.8530235  75.9840155  41.9242239
  45.7300043  75.0480652  42.0826530  46.1433458  76.3334179  42.7667570
  48.3588552  89.7454548  32.3524141  49.2875433  89.6946526  32.5786591
  48.3367872  89.6263218  31.4029121  77.7677393  12.4122465  57.8893375
  77.2279453  12.2567451  57.1143055  78.3640480  13.1142831  57.6289749
  56.2898970  69.2296219  13.4860754  55.7404852  69.4891882  12.7464795
  56.9661045  68.6738396  13.0986738   8.3665586   6.7593592  74.3271160
   7.9777181   6.6969943  75.1995564   8.0938500   7.6181811  74.0041828
  63.2564831  76.9902658  32.5402713  63.6494160  77.8560686  32.4297333
  63.4597874  76.5292978  31.7263865  40.5993700  47.6947451  90.2276325
  41.4534998  47.3435545  90.4793549  40.2085066  47.9871130  91.0510254
  85.2658081  68.9193678  44.5021439  85.6217766  69.2133427  45.3406525
  84.3995380  69.3237877  44.4546938  54.9734735  20.0040936  82.1430206
  54.6343040  20.7040620  81.5851402  54.4567442  20.0664520  82.9463482
  66.4572239  32.1213198  47.9572868  66.0046434  32.2435713  48.7918282
  66.1990213  32.8784537  47.4316311  31.9324756  53.2027674  24.4753718
  32.1046805  52.2640896  24.5492625  32.6408577  53.5334826  23.9230537
  73.1805754   8.4107137  40.6151772  73.5465622   8.8960040  41.3546228
  72.2953320   8.1785411  40.8956528  14.4728577  84.9909973  29.5570254
  14.2635548  84.8073196  28.6412287  13.7937808  84.5348740  30.0540519
  44.7340488  80.0438213  69.7635412  44.9691010  79.3976355  69.0976477
  43.7788200  80.0912666  69.7246122  63.6446714  83.2212543  29.6690345
  64.3898821  83.2018375  29.0686059  63.0949545  82.4881363  29.3923044
  80.5641556   2.0894879  48.4808636  80.4027748   2.1201873  49.4238615
  80.7146358   1.1629119  48.2936621 105.7593727  50.5974102  28.2523155
 106.6597080  50.3395128  28.4500861 105.7425022  50.6975889  27.3005223
  57.1648359  97.0922470  25.5328274  56.7793465  97.3397446  24.6923661
  57.7699709  96.3821125  25.3189325  96.7681599  93.5168648  45.4153252
  96.0122967  93.2100868  45.9161234  96.4812565  93.4814453  44.5028162
  30.9923887  75.8487272  61.5538692  30.2809620  75.2287912  61.7144299
  31.7486572  75.4658079  61.9984627  43.6964893  81.4125443  42.1396637
  43.7661791  81.5467930  41.1944914  44.0231705  82.2270012  42.5219870
  68.1709194  82.3028278  57.3512983  68.3657455  81.8679142  56.5211582
  68.8094950  83.0138779  57.4048185  60.1010370  90.4326248  20.8292675
  59.7217989  91.2212563  21.2171721  60.5975914  90.0302219  21.5418220
  95.9301472  24.4498444  27.5976539  95.5985546  24.6577477  26.7241240
  95.6786060  25.2013731  28.1344604  49.2343616  96.5142632  65.5126381
  48.3046961  96.2879562  65.5399227  49.6555948  95.7495785  65.1201582
  41.9652033  89.9808598  18.5246086  42.2188234  89.6771049  17.6530373
  41.3564396  90.7008648  18.3595693  20.6920886  88.4358692  40.5498838
  21.4293051  87.8305435  40.4703569  20.7325673  88.7450123  41.4548826
  18.8803697  92.8964043  49.4645405  19.6772981  92.7473068  48.9557123
  19.0294695  93.7340164  49.9031878  56.6173935  78.6889839  59.4862413
  56.7607021  77.9049587  58.9561510  56.6288996  79.4094896  58.8561821
  19.6546924  93.2835197  79.1648674  19.8187506  93.3783054  80.1031303
  18.7006140  93.2719421  79.0885162  68.2737398  80.8996296  67.2017622
  68.3516121  80.2591705  67.9088545  67.3328447  80.9612465  67.0369625
  31.4601493 104.5388603  32.2653818  31.9425201 103.8161850  32.6669931
  31.9282341 105.3249454  32.5468230  73.9180565  84.4852543  47.1261692
  74.5802736  84.7389984  46.4832735  73.9012098  85.2098465  47.7514029
  37.7011228  76.7319536  27.2101283  37.5182271  77.2923756  26.4560032
  38.1873584  77.2936916  27.8136635  21.8550348 107.0840931  49.5529842
  21.2034369 106.5237522  49.1314697  22.6948786 106.7652035  49.2225218
 109.0195179  97.2947788  52.9592609 108.1330872  97.0968056  53.2613945
 108.9704418  98.1989479  52.6489449  67.4915218  82.2302532  29.3978357
  68.1854820  82.6938915  28.9291167  66.7925596  82.1288204  28.7517786
  39.6168494  85.2107143  45.6585693  39.8234010  84.5076466  45.0427198
  38.9368200  84.8427486  46.2228346  98.9084148  90.6949711  51.0329056
  99.7717953  90.7740784  51.4385509  99.0802574  90.7435513  50.0925112
  64.3167496  96.0812187  67.0513010  64.4513226  96.1589622  66.1068010
  64.4552660  95.1525497  67.2373295  68.0248880  70.5074739  42.6516676
  67.9807472  69.5798254  42.4198294  68.4518433  70.9217167  41.9017744
  59.7503996  87.3271847  19.7966099  60.3430891  87.5886154  19.0919077
  59.1141558  88.0402279  19.8513544  68.6907482 105.4446030  55.8606482
  68.9533710 106.2109566  55.3507710  69.4923735 104.9288464  55.9479904
  76.2932968  97.2257710  27.5856948  76.3161039  97.9401398  26.9489908
  75.3649521  97.1195889  27.7933741  54.7237968  65.7065248  56.3753700
  54.8617649  65.1349306  57.1306705  54.6605110  65.1083946  55.6307459
   0.3166914   7.4785089  79.6402836  -0.4145193   6.8644732  79.7074795
   0.2024317   8.0693918  80.3846169  55.0378227   9.0663844  17.5989318
  55.4269409   9.2760658  16.7499018  55.4868269   8.2682920  17.8776383
  57.9245329  90.5943584  44.0671444  57.5617886  89.7832584  43.7111235
  58.7920952  90.6639004  43.6687279  88.8231754  73.0643797  62.9514265
  88.8073540  72.4799776  63.7093496  87.9503918  73.4570169  62.9334688
  34.4426107  95.4635239  54.7958803  34.5140076  95.1366615  53.8990545
  34.3970251  96.4149380  54.7011280  65.0758314  99.6594715  47.2862196
  65.2535343  99.0315914  46.5859222  64.4863367 100.3006172  46.8891525
  48.1010103  75.7864380  33.3307052  47.8105402  75.4776716  32.4724960
  47.7018452  75.1774693  33.9520383  79.2255402   7.1643370  68.8565922
  78.3249569   6.8406200  68.8369417  79.2109680   7.8741276  69.4986296
  60.1221752  91.5533829  27.2197723  60.6069040  90.8796883  27.6966333
  59.2576361  91.5623856  27.6305270  42.9532146  76.3392162  42.1819639
  43.6334181  76.9326210  41.8634939  43.2392025  75.4716206  41.8960857
  90.0624943   0.1553886  31.1438465  89.4053745   0.7418375  31.5186858
  90.9006691   0.5353146  31.4071918  93.2773304  21.7444730  28.9851522
  92.6985550  22.5063276  29.0138912  93.0184650  21.2768435  28.1910825
  47.4168634 100.3522015  54.1703081  46.9962549  99.6196747  54.6205616
  47.8831387 100.8223152  54.8615456  52.1386576  98.8290310  57.0761156
  51.5899754  99.4173241  57.5948572  52.7231503  98.4210968  57.7150106
  97.1679592  12.2971284  50.2517414  96.7243290  12.5551021  49.4437361
  97.4374771  11.3915479  50.0983763  93.0397129   9.2162174  31.7835188
  93.9888954   9.2546433  31.6659570  92.8782845   9.7055197  32.5902128
  61.6585112  88.4355640  80.1083755  60.8846378  87.8738308  80.0659180
  61.6416359  88.8000584  80.9932995  69.7419739   0.3687869   2.5041702
  69.1320562   0.0029655   3.1447965  69.3897533   1.2366024   2.3065151
  31.9527888  64.5822906  22.5628400  31.1836314  64.2317867  22.1136427
  31.5938854  65.1509380  23.2440591  62.6511908  97.9146576  34.5666647
  63.4622955  98.3546448  34.8211193  62.8067732  96.9914722  34.7660446
  76.3866282  93.4294891  11.5765262  76.4926720  93.2952595  12.5183165
  75.4917479  93.1435204  11.3930976  94.9297333  12.1282518  23.1361914
  94.2119312  12.2952926  22.5253820  94.5367908  11.5955782  23.8276315
  97.4306679  11.0166776  54.0270662  97.4678898  10.0686884  54.1542053
  96.5356064  11.2556672  54.2678785  51.9891500  94.3547153  16.1978412
  51.5910387  94.3253708  15.3278542  51.3046408  94.7136593  16.7624927
  19.4166684  69.3443060  18.2814872  19.8395348  69.0912008  17.4609077
  20.0238681  69.9666166  18.6818326  21.8983197  27.9394698  27.3235869
  22.8023481  28.2528925  27.3505878  21.4088941  28.6546922  26.9171929
  51.6329384 106.2692738  48.1178713  51.5000963 105.8088970  48.9465046
  51.0566330 107.0316029  48.1723452  39.7831011 101.2615490   5.9532881
  40.5868244 101.7771721   5.8869970  39.3317699 101.4136887   5.1229936
  48.5117769  83.5225773  27.1058536  48.7482071  84.2526817  26.5337658
  48.4740210  82.7641582  26.5230966  40.9804296  86.8476200  18.1865847
  40.2439308  86.6925335  17.5951862  41.2094355  87.7666378  18.0480540
   9.3359303  56.9871283  92.5123024  10.0447559  57.6178741  92.3859692
   8.7422383  57.4144983  93.1296539  30.3265071 105.6542397   8.5532653
  31.2107110 105.9643650   8.3577359  29.7944903 106.4494801   8.5812801
  52.9005814  55.2954006  14.7842610  53.2365274  55.3423357  13.8891804
  53.1708145  54.4318676  15.0965369  51.6259766 105.7259560  66.0177374
  51.8737650 106.3263798  65.3146553  50.6808281 105.8444977  66.1119461
  93.8475895  17.3060179  53.5362768  94.5728970  17.8605735  53.8237190
  93.7104893  16.6961694  54.2612028  55.8755493  93.0166340  19.5718360
  56.4647484  92.5591278  18.9720333  55.6739092  93.8402653  19.1277528
  52.9132175 101.6313553  50.8213520  53.3178854 101.9743633  51.6181087
  53.1466198 100.7030678  50.8147001  58.3111620  89.3066597  40.3292942
  58.9644575  88.7983036  40.8099222  57.4824095  88.8628292  40.5093431
  37.6015687  76.1288881  54.9680853  38.4577918  76.0909462  55.3943110
  37.0933127  76.7365932  55.5052996   7.2295654   1.0965303  45.2799797
   6.7648464   1.4732803  46.0271931   7.3045546   0.1654972  45.4892302
  46.8191910  98.9857578  46.1098623  47.4287748  99.3048477  46.7753124
  47.0922089  99.4252014  45.3045225  60.3345394   8.5243762  12.8761160
  61.1274004   8.1664753  12.4767280  60.1054859   9.2726493  12.3248875
  83.7827682 104.0028763  20.8719134  83.6406422 104.2135143  21.7947721
  83.9417839 103.0590153  20.8634067  96.0717487  23.2199216  23.1194544
  95.8467102  22.3777890  22.7239799  95.8346176  23.8673377  22.4554873
  64.4459057  17.0958591  36.6099811  64.6217918  17.7756000  35.9594059
  65.2456760  17.0533574  37.1341896   9.2196023  98.5051918  36.9519186
   9.3591905  98.9372349  36.1092520   8.7624693  97.6934528  36.7320776
  54.6187353  83.5955143  75.8111858  55.1382542  83.2035828  75.1092434
  53.9984369  84.1675758  75.3592920  79.0579081   9.5309418  30.5267525
  79.5392704  10.3517985  30.4232287  78.4424829   9.7024357  31.2395453
  40.4225588  76.3551807  60.6391668  40.7341862  76.9217873  59.9334192
  40.4830694  76.8971395  61.4258385  46.8724775  79.7502041  79.2714548
  47.6115227  79.6691799  78.6685658  47.0987940  80.4945278  79.8291254
  77.1611881  25.7453394  50.9602165  76.6989422  24.9371362  51.1824083
  76.7613363  26.0319638  50.1391220  36.8181205  16.0829425   7.2923142
  37.4721622  16.4690459   6.7097449  37.3187947  15.7897329   8.0536193
  38.8890982  52.4284744  70.0637817  38.9689374  53.3774090  70.1606226
  38.9604545  52.2770548  69.1213322  29.2218614  85.2829647  50.1701164
  29.9141455  85.0998211  49.5349550  28.4142160  85.2621651  49.6567869
 113.4215736   7.1557474  42.1239376 113.0371189   7.7602547  41.4891195
 112.6773357   6.8438190  42.6387691  51.4934397  90.6612968  65.5300522
  51.9889927  90.2327156  64.8322105  51.4269066  91.5743637  65.2505732
 109.5751667  11.9191599  12.6576078 110.4659653  11.5993786  12.8005970
 109.5818520  12.2537184  11.7608035  65.2094269  98.5953045  54.7087383
  64.6449947  98.9571571  55.3919029  64.8222446  97.7441692  54.5040894
  77.2858047   4.5250458  32.0825815  76.7079306   4.5793232  32.8437304
  77.4895477   3.5932150  32.0025134 102.7321339  15.9986234  26.8937039
 103.0923653  15.6308854  27.7006960 101.8606472  16.3086617  27.1399117
  85.8884430  18.8887274  16.6777563  85.8038235  19.8418117  16.7042565
  85.8982372  18.6234808  17.5974190 110.7941818  18.0027246  55.0443172
 110.5023479  18.9133465  55.0870848 110.1238823  17.5137234  55.5216026
 111.0318756  65.5415344   6.2565023 110.9148693  64.6131182   6.4579695
 111.5098572  65.5482721   5.4272169  51.9127893  91.0228920  77.4220991
  51.3774204  90.8110142  76.6574335  52.8100014  90.8367920  77.1453142
  63.1395626  65.9331656  21.7761350  63.8501263  66.5685463  21.6888142
  63.5479832  65.0891447  21.5836406   5.9308469  18.7915409  25.6242919
   5.7586521  17.8789222  25.8560443   5.1042670  19.1056383  25.2577686
  70.9221888  94.7416687  34.8626876  70.0218010  94.9023247  35.1450467
  71.0635662  93.8101578  35.0315905   4.3042436  17.1504593  40.1648474
   4.9978408  17.6509833  39.7351599   3.5679311  17.7596343  40.2194500
  59.1517639  87.2891140  22.5002050  59.3349123  87.0443726  21.5931273
  58.6387253  88.0943394  22.4321032  20.0906181  25.9806085  54.0768719
  19.2789137  25.7185411  54.5112514  20.0515580  26.9367123  54.0529203
  39.5758724  95.5793667  57.5368404  39.8657632  96.4108658  57.9120636
  39.5126605  94.9874306  58.2864141 108.7760067  14.8617101  49.4055939
 108.4751320  15.5417395  48.8028765 109.5620441  15.2299488  49.8090553
  79.5790005   1.5117458  44.5790434  80.3142738   0.9682070  44.2958879
  79.6314192   2.2919983  44.0270519  47.6317835 100.7344246  31.3880420
  46.8387270 100.8141708  31.9180775  47.6706553 101.5513897  30.8907604
  86.0244560  91.1540985  57.7540207  86.3655186  91.7246151  58.4427977
  85.4202080  91.7089462  57.2607994  74.1097450   3.0674955  55.4164124
  74.6755505   2.4043053  55.8117294  74.3813086   3.8889629  55.8258963
  64.3776798  99.7157860  49.9653721  64.3855286  98.7633991  50.0609303
  64.7010040  99.8701096  49.0777493  48.6402655  95.8395958  36.2844276
  48.9467335  96.5270805  35.6930971  48.6594772  96.2437153  37.1519232
  80.0693703  16.5721679  41.9907618  79.4610834  16.7917418  42.6964569
  79.5594072  16.6906977  41.1894369  10.9437442  37.4637628  49.8482513
  10.8924937  36.5788889  49.4868612  11.7927074  37.7938318  49.5540619
  56.7720652  82.4984741  26.5867186  56.0684299  83.0143929  26.1930680
  56.7157269  81.6467571  26.1535549  81.4769363  13.7316120   5.4623550
  81.3271713  13.7722874   6.4068913  81.0808086  14.5338988   5.1222742
 100.5559826  13.1846964  56.4275074 101.3720703  12.6947773  56.3264894
  99.8688030  12.5494671  56.2262630  14.6828628   0.7984378  20.1004314
  14.3219709   0.0129626  20.5115485  15.3916597   1.0699076  20.6836486
  49.7706890 106.4789200  35.0898099  50.5621052 106.9549847  35.3413248
  49.9754524 106.1111259  34.2301440  69.3550348 106.5825367  13.1580818
  70.0967121 106.3883877  12.5849712  69.0290213 107.4280548  12.8497839
 108.9284515  99.1777420  21.0672641 108.9169407  99.4705391  20.1560187
 109.3402958  99.8977280  21.5449977  73.9833307 104.9304771  23.9830399
  74.7174311 105.5447292  23.9783192  73.5330391 105.1017475  24.8101640
 113.4684263  54.9705505  77.5764561 113.1864628  54.4249678  78.3106661
 114.3502232  55.2563286  77.8151989 103.5132790  38.0278921  78.3200550
 103.8678646  37.3313665  78.8726425 103.7756348  37.7859640  77.4318695
 102.4903870  14.2868352  58.4953403 103.3321571  14.6928430  58.7022591
 102.6999187  13.3653343  58.3431244  90.2618694  20.6668568  31.3632655
  89.4391060  21.1444545  31.2574387  90.9413624  21.3255167  31.2194252
  97.0802307 106.8770504  21.7355585  96.3792038 106.2319469  21.8285418
  97.8355122 106.3690090  21.4394522  65.8731842  96.1082935  17.2292054
  65.2802420  95.6032562  17.7856231  66.2844753  95.4553699  16.6628468
  26.7392373  75.6742287  91.7709637  26.8456483  75.9431267  90.8584976
  27.6092005  75.7819319  92.1554089  35.6713772  78.6720276  51.3172150
  35.3111434  78.1001568  50.6394053  35.3082061  79.5354223  51.1200190
  83.8036060 104.5921612  61.1617756  83.3874512 104.3387794  61.9856930
  83.1188583 105.0566101  60.6804895  77.8865576  39.3180537  36.5855408
  77.1436977  39.9209714  36.5558767  78.2696962  39.3667793  35.7097197
  99.8608494  42.0610857  62.5437021  99.0657902  42.5340223  62.2978592
 100.3861618  42.0435762  61.7437220 103.1624126  10.2650166  13.0388439
 103.2790947   9.4798321  12.5039589 103.1422997   9.9406743  13.9391935
  22.5576425  10.9304392  40.8335114  21.9719601  10.8602154  40.0796700
  22.6279044  10.0357389  41.1663914  37.2040462  78.6110353  30.6098270
  36.3523030  78.4140539  30.2200007  37.8358293  78.1756449  30.0375342
  88.0355740  15.1242554  55.5181932  87.2604656  15.6700289  55.3856754
  88.1498909  15.0971937  56.4681578  96.8528652  12.1356988  61.4550304
  97.5660133  12.1526337  62.0932770  96.9380474  12.9615986  60.9787273
 111.0791206   6.4823067  38.6668777 111.9995022   6.5285641  38.4080553
 110.6017494   6.4032626  37.8409815  72.6822424 105.3036594  78.0642700
  72.9077578 105.1905060  78.9876175  71.8899727 105.8407021  78.0752897
 102.8376293  40.0616598  84.7299480 103.0143356  40.1886892  85.6620789
 103.6277866  40.3769636  84.2912292  81.5012646  84.0533638  23.8550806
  81.9577885  84.1247845  24.6933603  80.5993462  83.8365650  24.0912461
  13.6018634  13.0615664  46.5579700  13.6955619  13.8938439  46.0945463
  13.5309255  13.3076465  47.4802780  29.5433450  23.1053233  25.9535241
  29.5852160  22.7441072  25.0680852  30.4156446  22.9515862  26.3164139
  75.6308174   1.7851777  24.5622993  75.3927279   1.4945440  25.4426837
  75.3819180   1.0562963  23.9939570  89.1954613  99.8688507  82.0230770
  89.8466396  99.1906643  81.8434334  88.4416676  99.6254826  81.4856815
  43.8732529  78.7558413  40.8114386  44.5709324  78.9907598  40.1996517
  43.8955545  79.4443798  41.4760065 107.5875187 106.7962551  32.6879621
 106.8929863 106.9503593  32.0475650 107.2654819 107.2020245  33.4928679
 104.4553280  76.7675400  17.6993215 104.9389839  76.0055113  17.3805487
 104.4500065  77.3746014  16.9592690 101.7427349   7.0508718  39.9775386
 102.0989609   6.1719674  40.1073980 102.3438072   7.4637222  39.3574643
  53.0972338  92.8049469  53.4447527  54.0447187  92.8883457  53.3372688
  52.7284527  93.3579636  52.7559757  98.1076813   2.5636178  30.5832863
  97.5365162   2.1487491  29.9368477  98.5483456   1.8331376  31.0173869
  68.4617805  75.1633549  21.1624122  68.0134392  74.4068336  20.7843971
  69.1496468  74.7850752  21.7101145  66.4301777  92.5739193  25.1166964
  66.1820793  92.2496700  25.9824586  66.3092470  93.5218239  25.1722455
  32.5107026 101.8375874  39.9057913  32.1282053 101.6755772  39.0434217
  33.4115553 102.1039200  39.7220397  14.3991446  62.9070520  91.9504833
  14.6926177  63.7833500  92.1999073  13.7802291  62.6573944  92.6366711
  76.9958878  14.7869456  49.2451334  77.7825689  14.6126032  49.7618151
  77.2291756  14.5197868  48.3560705  55.2007675  86.5068531  19.5426738
  54.4062901  86.1777115  19.9630356  55.1981926  87.4459934  19.7277558
  64.1696978  15.8890867  59.4263697  64.9168301  16.1478293  58.8868570
  63.4469938  15.7957339  58.8057137  73.7136555  98.3723450  10.1276851
  73.0646038  97.7026367  10.3432262  74.2534685  97.9721260   9.4460285
 103.6155987  31.9226933  27.7605915 103.4042931  32.8126574  27.4785519
 104.5540905  31.8350768  27.5938773  38.7785029 102.6267433  37.6223946
  38.5946584 102.1749401  38.4459877  39.3922520 102.0515919  37.1655130
  91.4139557  25.4964614  13.4261703  90.9185791  25.5471659  14.2436409
  92.3212147  25.6572556  13.6855352  56.1941147  92.3273659  53.9848518
  56.6286182  92.0659733  53.1729937  56.0928297  93.2760429  53.9075899
 108.3591270  25.2507162  31.4838266 108.7723732  24.3879128  31.5160203
 108.5147953  25.6233740  32.3516536  44.0035152 105.0712109  31.0304070
  44.7975588 104.5872593  30.8034253  44.3138933 105.9478378  31.2571645
  64.5127010  98.8902855  16.2473309  64.5511007  98.7368774  17.1913767
  64.3379545  98.0275249  15.8713877 108.4368515  31.8193293  57.3441124
 108.2638645  32.2616887  56.5130711 107.6108837  31.8797541  57.8240776
  12.2529447   0.4721103  37.4804187  11.7386389   0.8357894  36.7596841
  12.9995871   1.0650806  37.5649285  23.9112568  20.0048137  53.6129379
  23.5096097  20.5924726  54.2529154  24.5248914  19.4772923  54.1242170
  83.0304337  13.3084047  58.9575863  83.4173679  13.0610991  59.7974396
  82.1928215  13.7099063  59.1887379  77.8166866  44.7711515   2.7760974
  78.7389421  44.8797035   3.0082446  77.8338003  44.3291569   1.9272296
 106.0720825  18.7287354  64.2435980 106.9563198  18.8525772  63.8986015
 105.7489395  19.6163225  64.3985176  97.0727444  26.7096329  54.8854303
  96.6642380  26.1418295  55.5388498  97.6553822  27.2762060  55.3911543
 109.4289589  19.1977096  42.3281050 108.9153576  19.1478825  43.1343126
 109.2747402  18.3588445  41.8936491  16.6526222 103.3183575  47.8489971
  16.7534900 104.2072296  48.1895113  15.7137311 103.2297707  47.6850843
  75.2410984  85.8008957  39.1519141  76.0766983  86.0853195  39.5221996
  74.7744989  85.4064083  39.8887253  10.6449485  14.4675279  49.9351358
  10.4781365  15.3971362  49.7794724  10.4389083  14.0443635  49.1016436
 104.5449066  20.3962421  11.1824584 104.1228294  21.1897755  10.8532274
 104.1388416  19.6854961  10.6862891  22.4304175  82.9951000  52.7451134
  21.9761372  82.3332691  53.2664967  23.3550596  82.8790855  52.9637671
 107.1646118 107.2638893  65.3105831 107.5861549 106.4257717  65.1205730
 107.3755550 107.4354553  66.2283516  82.1758366  29.4143844  22.5611806
  81.6303253  30.1223540  22.9038572  82.3762989  29.6795011  21.6635394
  96.3593578  16.5723705  27.5051260  96.6084957  17.4927247  27.4207997
  95.9301853  16.5176773  28.3589697  56.6750145   7.0780504  12.2736204
  57.5876904   6.9798160  12.5449181  56.4704180   6.2600130  11.8206441
   4.1872352   8.2642668  53.6838150   3.9246678   8.3087206  52.7644062
   3.4153244   8.5577601  54.1678047  16.9353104   9.7155863  21.1492920
  16.1131418   9.8939216  20.6927109  16.7740035   8.8997424  21.6232228
  48.4020996 106.8953609  50.6501722  49.3342829 106.8600273  50.4356527
  48.3780909 107.1495724  51.5726852   0.8520120  25.8075976  33.3062053
   0.7105773  26.5455413  32.7131915   1.3039751  25.1543593  32.7721262
  38.2016850  82.2806835  70.6802940  39.0099168  82.0200253  71.1219406
  38.4442186  83.0569363  70.1754713  87.7540684   8.8341725  29.7658491
  87.5150394   8.9162219  28.8426113  88.4385204   9.4906753  29.8953104
 106.9511223  97.1317577  56.0975075 107.4523449  96.3912582  56.4390755
 106.7120266  96.8694687  55.2085400  67.6001406   6.5356785  17.6982224
  68.5199070   6.4336032  17.9428434  67.1471596   6.6876775  18.5276413
  98.1668949   4.7496113  13.4914529  98.3518600   4.2891937  12.6728964
  98.2276154   5.6772780  13.2634640   4.8683900  44.1886902  22.5181341
   4.9134460  43.3636427  23.0013442   5.6108308  44.6977139  22.8435731
  66.6848469  93.4433174  14.2607367  65.8979034  93.4635353  14.8052907
  67.4040031  93.3346462  14.8830247  92.1989918  24.7354841  36.1456704
  93.0412769  25.1183200  35.9002590  92.2860622  24.5436168  37.0793915
 106.4809132  15.4901290  20.0112176 106.6566467  14.9319863  19.2537045
 106.0850525  14.9026144  20.6549191  77.6494122   9.9576074  39.6214628
  76.8699360   9.6183634  39.1815019  77.9502487   9.2322814  40.1688480
 101.2804890  18.3588433  17.7996325 101.5190029  19.0613830  18.4044325
 102.0428848  18.2653844  17.2284591  99.3231487  37.5362682  61.0311079
  99.5137119  37.1186137  60.1911783 100.0325394  37.2508860  61.6069126
  51.5636730 104.0055561  42.8855419  51.6749716 103.1717300  43.3422470
  51.4360094 104.6465206  43.5848951  59.7464991  23.1345558  22.3995638
  59.7371960  23.4983468  21.5142393  60.6318045  22.7865720  22.5062251
 105.2587223  80.6802654  24.7134733 105.8076859  79.9737978  24.3732309
 104.7334576  80.9580421  23.9630294  53.8051891  98.7794399  53.5550165
  54.0219831  97.9656410  54.0099335  53.9122105  98.5708904  52.6269627
  65.7569981  93.4214401  63.8687563  65.4378033  92.6187229  64.2810678
  66.1354685  93.1304073  63.0391216  93.4820175  13.4952641  81.8725300
  94.2807388  12.9707611  81.9287968  93.2379627  13.4614801  80.9475803
  58.6022425 103.0931282  59.8018169  58.2112026 103.4109211  60.6156492
  59.2629814 103.7496376  59.5812273  36.7148304  90.7390881  75.4279757
  37.3119378  90.6170273  74.6898699  36.6119599  89.8632431  75.8001995
  74.5263433   2.3483880  29.4003820  75.3571653   2.3170748  29.8747063
  73.8587475   2.2589774  30.0804973  39.3466544 105.5874634  40.8206749
  39.8425817 105.8627892  41.5917015  38.5669971 106.1427402  40.8265257
  11.3720107  24.5575309  46.5243864  10.8178699  24.7794271  45.7761049
  12.0316696  25.2507353  46.5478182   0.9762759  11.6147661  16.6103280
   1.0775711  10.7411814  16.9882429   1.7310563  11.7136812  16.0300219
  76.2304068  46.0230303  74.6511555  75.3108597  45.9653521  74.9106455
  76.3692760  45.2599859  74.0901613  81.2153244  26.6282177  16.2633014
  80.5848217  26.0666299  16.7142081  80.8521271  26.7387128  15.3846061
  40.4743481  81.1774921  20.4673719  39.8078394  81.3621712  19.8056436
  40.7734632  82.0405865  20.7534385  95.9169865  16.2211132  37.5233316
  95.5659199  15.4406083  37.0946169  96.6981030  16.4421046  37.0161247
   1.9635305  17.2562718  47.8912497   2.8355989  17.0601761  48.2337046
   2.1111459  17.9390788  47.2368670  27.6686859  96.1208153   8.0792338
  27.4524665  97.0492363   7.9925287  26.8539810  95.6645012   7.8688592
  88.8224506  99.6470451  54.7812939  88.4207821  99.3699455  53.9578199
  89.5341206 100.2298164  54.5164585  50.0186968  34.9368167  22.2433615
  49.6033573  35.6084728  22.7842903  50.7413816  34.6105480  22.7795553
  61.9102907  17.1046591  52.7653360  61.5281916  16.2523556  52.5560331
  61.4505339  17.7200186  52.1942091  61.7827129 102.9669857  42.4440241
  62.6876068 102.6954651  42.2901487  61.8485594 103.6562061  43.1049824
  43.4927273  98.0903625  49.4740820  43.0686522  98.5686970  50.1865339
  43.5778570  98.7340736  48.7707853  86.3689232   0.4961192  13.9319468
  85.8448887   1.2715305  14.1328371  87.1988297   0.6438166  14.3854713
  45.7051373 106.0591888  42.8669739  45.3491068 105.5599689  42.1319580
  46.4999342 106.4636421  42.5191927  80.2460194   2.8717661  56.2248468
  80.2475548   2.0259278  55.7767534  80.8023357   3.4310442  55.6826735
  23.3361816 104.9226761  24.7780108  23.0305147 105.6434250  24.2272711
  22.5590253 104.6459675  25.2634954  63.4470463  81.0895061  24.1624379
  64.0894270  80.4209423  24.4003344  63.6844349  81.3431358  23.2704997
  26.3737202   9.6123558  33.1810212  26.5770602  10.4903734  32.8585792
  25.4427242   9.6475136  33.4006619 110.7827187   9.1720235  32.7077985
 110.7055473  10.0998664  32.9300189 110.2291679   9.0641260  31.9343829
  72.6035452  99.6675682  69.6504116  72.8173590 100.3199673  68.9834118
  71.9252300 100.0829220  70.1829481  46.7302752  68.6984730  21.3626146
  47.2789526  68.9934492  22.0893717  47.1236706  69.0992737  20.5874825
  66.2924147  91.1098766  45.0941849  65.6193829  91.7399120  45.3517008
  65.9470606  90.7015419  44.3003178   5.8097190  17.5964224  52.7389765
   6.0046875  17.4781406  53.6686134   6.4063108  18.2891595  52.4553823
  15.1342881  17.3613548   8.7656975  15.7934773  17.1480834   8.1052309
  14.7793496  16.5133452   9.0323967  52.0698214 103.0848598  64.7696543
  52.0146704 103.8792419  65.3008318  52.5364208 102.4585915  65.3231001
  83.3800793   2.6170957  50.3746271  84.0129471   2.2277869  49.7711849
  82.9604149   3.3113307  49.8665380  35.5252218 101.8397522  44.4117498
  35.8175373 100.9546757  44.6295404  34.5768118 101.7603970  44.3095160
  82.2742558   8.3272696  42.8029203  82.4837208   9.1362321  43.2697582
  82.9633904   7.7157092  43.0623674  97.0160770  22.2834921  25.8087897
  96.8041515  22.6610136  24.9550915  96.8465710  22.9900742  26.4318824
 111.0168743   2.5802714  43.4396648 110.8871841   3.1364211  42.6714802
 110.1714134   2.5906685  43.8883686  96.4245510  12.6933861  47.5117588
  96.3547897  13.5921562  47.1899223  95.8675671  12.1842122  46.9229126
  71.4874268  99.9645996  78.0957937  71.3877964  99.0941906  78.4813929
  71.4674759 100.5616188  78.8437271  18.1969786  31.5099144  63.6952496
  18.4540665  31.5149140  64.6172619  18.0685663  30.5844140  63.4874201
  15.2321351  78.5690594  84.0953827  14.3552911  78.3328104  84.3979836
  15.5593681  77.7775431  83.6680126 106.6265488  34.1553092  59.6850491
 105.9940243  34.8672342  59.7815084 106.9302177  34.2257023  58.7800264
  75.6192350   6.5676677  69.1261053  75.9376431   5.8281094  68.6085129
  74.7082710   6.6765195  68.8531065   0.7488983  43.4873867  40.5311537
  -0.0738244  43.3159018  40.9893608   1.3342324  43.8261127  41.2085629
   4.9541348  21.7041326  58.5933065   5.1721132  22.0603919  57.7320290
   4.5651621  22.4402857  59.0655518  59.9897814  94.9525261  64.3205643
  60.3446388  95.8269024  64.1600227  60.7318640  94.4512081  64.6585369
 112.7760983  13.5504138  30.7492971 112.2421646  13.9870107  30.0855684
 113.1507492  12.7949452  30.2963829  47.1085930  62.9116106  23.3976054
  47.6544428  62.1542025  23.6088157  46.8557692  63.2694197  24.2486548
  67.5451851  88.6176777  37.7048755  67.3907900  87.9319096  37.0551729
  68.0004263  88.1724262  38.4195328  47.6490211  91.3997555  63.6659956
  47.9323673  91.9625664  64.3865395  48.4595156  91.1585617  63.2174873
  79.6384239  12.4394500  25.0373816  79.9163246  11.5970361  24.6777391
  78.7559938  12.2779608  25.3712511  92.1151924  15.3384709  58.4525490
  92.2875214  15.5702913  57.5399733  92.0264626  14.3854225  58.4449148
  61.1035919  84.3884182  44.9783564  61.5254927  84.5007706  45.8301830
  61.4573145  83.5647583  44.6426487   2.7052501  21.1267066  64.4093513
   1.8185380  21.1557746  64.7686958   3.2484996  21.5436387  65.0781393
  86.0363579  98.0879974  50.8565092  85.2240562  97.7330971  51.2176609
  85.9709644  97.9259682  49.9153900 102.5674152  29.4930696  33.9724326
 103.3589649  29.5687532  34.5053148 101.9009399  29.1689563  34.5782304
  62.6766777  79.9768639  68.4632301  62.7218437  79.0418863  68.6632681
  63.0717850  80.4037857  69.2234039  29.8328328  86.6214180  83.4751701
  30.3794098  86.4818859  82.7018547  29.3354392  87.4148369  83.2769203
  56.5011263  97.5561714  23.0191565  55.8409357  97.9342556  22.4382687
  57.2698069  97.4354935  22.4616647  53.5404968 103.9540386  70.7620335
  53.1639767 103.1721878  71.1659718  53.0566788 104.6819115  71.1523533
  76.6290331  98.1839466  40.4798508  77.4313068  98.3653069  39.9902630
  75.9593201  98.7132359  40.0467491  46.3187885  88.3087635  67.8645611
  46.4762259  87.5454998  67.3087978  45.8714724  88.9329529  67.2931290
 105.9904099  54.6698141  71.0770273 106.5682983  54.9444818  71.7889452
 106.3834095  53.8614607  70.7478571  50.0958300 100.0174904  30.5475187
  49.7464800 100.0562763  29.6571898  49.3961334 100.3736305  31.0950804
  95.4654217   3.8475364  45.9871197  95.5510330   2.9110581  46.1657572
  95.4316521   3.9071390  45.0323725  45.5661154  89.3501282  22.9360819
  45.4857445  89.0314960  22.0370579  46.4854860  89.6032619  23.0191875
  40.4094839  75.2323389  49.7173166  40.7153893  75.3727818  50.6133795
  39.6331859  75.7869101  49.6395636  66.1076403 101.6792202  59.2127943
  66.3640261 101.5810299  58.2958126  66.2151480 100.8045864  59.5865297
  55.2726746  88.5020447  48.3350992  55.9786701  88.0165195  48.7617922
  55.7127142  89.2335701  47.9021215  80.2210331  22.0415235  18.8401282
  80.4069233  21.3683558  19.4947457  79.6729565  21.5999126  18.1914175
  40.0935173  75.4514360  41.3297176  40.5881786  76.2683678  41.3942623
  40.5906010  74.9188662  40.7088280 103.4502220  10.6733346  67.1429777
 102.9387856  10.9076738  67.9174137 104.2746162  10.3360116  67.4934483
  42.0982933 106.4339352  62.6301956  42.8563833 106.0467625  63.0679369
  42.2849798 107.3726082  62.6134014  89.5357990   0.4142244  68.8098240
  89.0644264   1.2454030  68.7534237  90.1776791   0.4543159  68.1008768
  86.7941380   7.5185740  59.6553469  87.6556110   7.7677184  59.3206453
  86.7438221   7.9308760  60.5177307 105.1328468  12.8753412  13.3225942
 104.7208405  12.7921057  14.1825688 105.6991291  13.6430061  13.4016049
 111.3674259  34.6726131  63.9890480 111.5193462  34.9241447  64.9000263
 111.2610054  35.5034256  63.5257339  86.2033653 100.6416893  33.8720512
  86.3009930 100.1024246  34.6568441  85.3182697 101.0004044  33.9365149
  42.7252674 105.7389164  53.1209135  43.2196712 106.3968468  52.6321030
  43.3178997 104.9896336  53.1808329  89.7166443  19.4387531  51.8806601
  89.0763664  19.0805280  52.4954367  89.6622372  20.3865004  52.0033216
  84.2949772   5.4345435   1.2082893  83.7391472   5.1761460   1.9434842
  85.1874161   5.3691256   1.5481701   8.5562062   2.5753069  41.0635281
   8.5297340   2.3648636  41.9969320   9.1403997   3.3312929  41.0049200
  78.0634689  18.4556091  33.3133698  78.0476665  18.3732009  34.2668867
  77.5812578  19.2629445  33.1347179   8.9742589  74.1539001  80.7745075
   9.2971069  74.6706438  80.0362778   8.0767733  73.9253616  80.5325890
  74.8182583 100.0511169  51.6373444  74.7986698 101.0046768  51.5563297
  75.7351398  99.8449707  51.8191719  73.5085201  95.2060318  86.8450928
  73.4151697  95.3130531  87.7917004  74.4131899  94.9173832  86.7247486
 109.7466755  23.2334566  56.2301731 108.8791180  23.4991837  55.9252691
 109.6644783  22.2946358  56.3977766 111.9631767  11.1488950  11.8168259
 112.4165821  11.0977232  10.9753788 112.5703239  11.6195965  12.3878229
  43.5377121  83.3363724  26.1205745  44.2567205  83.7248230  26.6189384
  43.9349079  82.5929070  25.6670022  46.3754082  96.6328716  43.8118982
  45.6073189  96.6669083  44.3820810  46.7735720  95.7823086  43.9969540
  80.4023647  19.8082519  30.6006384  80.5658436  19.4172275  31.4588952
  81.0845661  19.4430602  30.0371885  14.7130048  21.3901496  75.2802658
  14.8609591  21.4427471  74.3360329  15.1307774  22.1761298  75.6323099
 101.4584923  33.3757043  39.9528599 100.8324337  34.0419412  40.2364206
 101.4428997  32.7201509  40.6501675   3.4870005   2.1547644  55.1560688
   2.7267101   2.4621761  55.6497192   3.9255771   2.9554969  54.8684740
  55.9896326  98.8478947  61.6749239  56.2617064  99.3714619  62.4286366
  55.5919266  98.0658245  62.0575857  73.0571032  91.1031246  52.6773500
  73.8691378  91.4814377  52.3401403  73.3004665  90.2188015  52.9511595
   5.0937748  34.9659872  84.3518448   5.7747018  35.0212002  85.0223064
   5.5745423  34.8762012  83.5290241 112.5382423  14.4461286  53.2634974
 111.6366291  14.1979492  53.0591965 112.6303768  15.3293371  52.9061651
  78.9514732  24.3855286  22.3297286  79.4840145  23.6194563  22.1157908
  79.1245270  24.5460367  23.2573700  63.6546087  39.3666959  12.3872399
  63.9037991  40.2779579  12.2331572  64.1110182  39.1266537  13.1936526
 102.1065235  45.5245209  62.4223280 102.2240162  46.3674402  61.9842482
 102.5707054  44.8988152  61.8662214  35.5421472  17.7136672  59.2607498
  36.0683560  17.2770786  59.9306202  34.9541783  18.2861471  59.7534895
 106.1031628  19.7485626  31.5407014 105.3669834  20.3022146  31.2804317
 106.2975883  20.0153613  32.4391723  91.8292809  27.9734373  61.0379934
  92.2643661  27.6998520  61.8455124  92.1120167  27.3333335  60.3848791
 111.9929123  22.0758438  27.0180774 112.5260067  21.7148733  27.7264166
 111.1322784  22.2152591  27.4131751  68.8647890 100.0429058  41.6257000
  69.1556931 100.7747746  42.1697426  69.0276623 100.3322792  40.7279396
  99.4328499  24.5216393  51.3021755  98.5770988  24.5336866  50.8734703
  99.9439716  23.8878584  50.7988834  80.2949047   5.1843095  42.8846741
  80.7208633   5.7184702  43.5550880  80.6287289   5.5286157  42.0562696
 105.5809879  43.2094526  28.9345217 106.4771080  43.1408024  28.6051416
 105.0978470  42.5353575  28.4566140 106.9699001  17.8337252  12.2252214
 106.1148930  17.4607420  12.0105624 107.0932579  18.5342479  11.5846884
   3.4327406  23.6772251  52.1869755   4.0891993  22.9809546  52.1645689
   3.0528411  23.6201000  53.0637026 109.1223145   6.7282093   5.8058947
 110.0060081   7.0326674   5.5994320 109.1595650   5.7803285   5.6779629
  65.4102182  91.2621880  58.9528465  65.9481668  90.6557083  59.4617844
  64.8103428  90.6983376  58.4645271  92.7667999  96.6026974  69.0939617
  92.1017647  96.8682861  69.7291183  93.5599041  97.0609856  69.3717957
 107.3143101  19.6483743  92.3617554 108.0992699  19.8598015  91.8564034
 107.6444817  19.4061899  93.2269478 103.2489300  23.1570768  20.5241394
 103.3994198  23.8790345  19.9139249 103.1916714  22.3807049  19.9671829
 104.3496418  44.8018074  17.8791738 104.0942383  44.0936136  17.2880185
 103.6848450  44.7904873  18.5677636  74.6077347  94.1450310  29.6839499
  75.1053905  94.0253448  28.8750958  75.1050711  94.7977066  30.1768064
 107.5077057  46.2103510  53.0256844 107.8575230  46.9735622  53.4854269
 106.5670013  46.3769865  52.9661751 102.9557228  63.8121510  25.8771181
 102.6812267  64.3320227  25.1217270 103.5487747  64.3871021  26.3608003
   6.8620157  18.4098840  29.0300632   6.7376339  18.1572020  29.9448919
   6.1159599  18.0236185  28.5713339  23.3185458   9.3100947  38.6200547
  23.7337136   9.3026787  39.4824982  22.6476240   8.6293113  38.6713457
  74.0752363  98.0222797   3.1582135  74.6498299  97.7855778   2.4301720
  73.2942009  97.4835300   3.0318585  12.2930205  20.2286983  36.2936664
  11.6655028  20.6635499  35.7162929  12.0354557  20.4997444  37.1748161
  71.0043144  16.9329655  72.6739311  70.9155941  17.3355865  73.5377932
  70.4979372  16.1229050  72.7340794  72.6473808  91.1711216  73.4082174
  72.7475691  90.3698444  73.9221811  71.8505049  91.5767288  73.7498379
   6.7314649  47.1429777  49.4132519   7.5917238  46.7289305  49.3443203
   6.8992174  47.9700041  49.8650455  55.2318668  99.9435902  40.7641268
  55.7883930  99.1651726  40.7880783  55.7726765 100.6364250  41.1432552
  64.4067335 105.1966000  20.0697041  63.6345720 104.9243259  19.5738542
  65.1123381 105.2149868  19.4231606  10.9384537  43.0581474  59.0660620
  11.8718815  42.9752874  58.8709211  10.5789399  43.5357141  58.3184624
  71.2785435  94.8410034  72.9147625  70.9403467  95.4250526  73.5935450
  70.9096813  93.9844227  73.1302547   2.9636332  33.2109523  61.5783501
   2.6460192  34.0488052  61.2416697   2.5000411  32.5532627  61.0599327
  55.2266407  84.3637848  42.6625681  54.9057341  85.2384186  42.8822279
  55.8021545  84.5017529  41.9102526  86.8830490  12.2335374  55.8322287
  86.0013676  12.3775053  56.1759663  87.3104858  13.0869710  55.9041929
 108.5118771  43.1564713  46.9390535 107.7300167  43.3083296  46.4081335
 109.2362690  43.4561205  46.3897896  19.0572762  20.4166007  29.0818214
  19.5718873  20.5802536  28.2914901  18.8352954  19.4866836  29.0348077
  62.2305202  98.2706547  28.7277937  61.4368248  98.1502628  28.2064652
  62.2913647  97.4762917  29.2583728  53.8280296  85.2240181  49.3686438
  53.5287619  86.1214828  49.5143652  53.6431265  85.0569725  48.4444475
   3.3645236  32.1081376  68.3908844   2.9195961  32.5764537  69.0972519
   2.7998325  31.3570547  68.2085943  84.1705990  17.7280223  23.3876252
  83.4136772  17.2177863  23.0995822  83.7938690  18.4633267  23.8709879
  99.6648598  44.6182823  40.7093000 100.2342510  45.2070665  40.2139568
  99.2211437  44.0958786  40.0411415  55.1778889  82.3618984  33.1543136
  54.3584871  82.8556156  33.1868291  55.4732752  82.4474812  32.2478604
  24.0480304  29.4655395  52.5824308  23.2557440  29.9963641  52.5003242
  23.7358117  28.6156917  52.8930902   5.9818780  26.4022565  43.4942055
   5.2867520  26.8024397  42.9718208   6.7877793  26.6147280  43.0234528
   6.7213184  31.5232015  58.5355330   6.4443791  30.6151795  58.4129333
   6.2356472  31.8198943  59.3051624 104.9909019  56.7891550  42.0168161
 105.2289772  55.8706808  41.8904972 105.8253670  57.2351360  42.1617365
  79.1071987 107.0836449   9.4448864  79.2853022 106.8060875  10.3434801
  79.7433853 106.6030788   8.9152193 102.3699570  15.8745289  65.5933189
 101.5279484  15.4193044  65.5978155 102.9945850  15.2260077  65.9181166
   6.4081925   3.1926751  57.1815062   5.7517391   2.9310530  57.8271532
   7.1845514   2.6807752  57.4083471  97.1876144  31.4254546  49.8550367
  96.9268799  31.3826847  48.9350271  97.0726871  30.5318666  50.1783419
  16.0589314  46.3902903  33.1799006  16.4111614  46.9938421  32.5257683
  15.7984054  46.9528770  33.9091849  96.2886906  27.9121280  69.9973869
  96.0658360  27.4970746  70.8306313  95.4448318  28.1622028  69.6211100
   4.6435466  35.9557366  56.2728834   4.7672072  36.2689924  55.3768873
   4.1751614  35.1268029  56.1743021  86.4165211  94.3257332  56.7259502
  86.2087440  94.4882965  57.6460791  87.3706436  94.2519951  56.7052650
  96.0704613  19.2021739  20.5917311  96.4284229  18.3373559  20.3912616
  95.1389313  19.1299105  20.3837466   9.4229603   3.9978448  61.9824743
   8.5051483   3.8671470  62.2207403   9.4579178   4.8933262  61.6461372
  81.6776562  85.4261398  66.7861557  80.8131027  85.3690815  67.1929979
  81.4962673  85.5438805  65.8537054   3.6736712  14.1764772  88.7028503
   4.5055878  13.7342155  88.5338783   3.0174699  13.4818459  88.6470127
 100.6928825  36.6494560  38.6297774 101.6368771  36.5899730  38.4829378
 100.3683281  37.1688724  37.8941822 110.9033680  98.7339020  61.6015816
 110.2920437  98.4414005  60.9255981 110.8927822  99.6888733  61.5370798
   3.5736516  61.9693327  32.1496058   3.7550482  62.5848579  32.8598571
   4.0578118  61.1788368  32.3882270  72.9968023  99.8933887  65.8252811
  72.5892305  99.7448826  64.9720144  73.5624123  99.1323662  65.9562540
  37.6627231   8.2563609  29.3819594  38.2720256   8.1506592  28.6513376
  37.5686431   7.3755729  29.7447181  88.8878918  86.9635868  55.4086256
  89.0150261  87.5905991  54.6966410  89.7745895  86.7197609  55.6742334
 107.8438091  49.7975349  41.1221504 108.0519581  48.8654757  41.1866999
 108.2051373  50.0656939  40.2773046  30.6321335   8.4696525  16.8561375
  31.0833836   8.5902631  17.6916361  30.6308222   9.3396014  16.4568639
   5.9022474  44.4321537  28.9233685   5.5654651  44.9711800  29.6390915
   6.8120062  44.7115088  28.8207459  98.9318848  88.2855606  71.7320824
  98.2816124  88.3768272  71.0356236  98.5382748  87.6672935  72.3477459
  51.6312742  17.0265210  63.0958271  51.0215473  17.6359260  63.5118723
  51.0926342  16.2702346  62.8631687  19.1549575   9.7989416   5.0993741
  18.3578396   9.2691779   5.0857973  19.3958795   9.8454827   6.0245889
  96.7605495  91.5418053  37.7264977  96.3843155  91.7809582  36.8794489
  97.7035618  91.5022945  37.5671482  26.3467193  29.8864913  51.0908222
  26.4496088  28.9404011  50.9880686  25.5892277  29.9837637  51.6678667
  -0.3386831  21.3418698  29.8317933   0.0258207  20.9762120  30.6378102
   0.3907442  21.8160057  29.4325852 101.0200691 102.4121857  45.4123878
 100.4072189 102.8016186  46.0360813 101.0552883 101.4873981  45.6568480
  43.8363647  35.0450087  37.4719214  43.3115625  34.2515182  37.5777054
  43.2910347  35.7429814  37.8348041  74.5929861 103.5985565  41.8906164
  75.0965405 103.2563877  42.6292562  75.1422024 103.4259987  41.1258793
  55.9155226  79.2606497  89.1312027  55.5091000  78.8285398  89.8824215
  55.9377480  78.5876322  88.4509182   3.6074734  97.8190041  63.1671667
   4.2912483  97.1622753  63.2990360   3.0010039  97.4123764  62.5482321
  80.3558731  92.9104233  41.8381023  79.7877169  93.1623363  41.1101055
  80.1064491  92.0075703  42.0352554  14.2921627  23.6396980   7.3219478
  15.0501859  23.3855653   6.7955941  14.5704091  24.4365025   7.7735150
   7.4732077  20.7732677  30.9473801   7.0580894  19.9217677  30.8100748
   8.1675130  20.8101130  30.2894950 110.1994896  57.5946712  23.9219999
 109.4268608  57.9056883  23.4502459 110.6023312  58.3892727  24.2720771
  32.5490880  32.2614217  61.8152666  32.3565769  31.6233897  62.5023508
  33.2827330  31.8800616  61.3330173   9.3845206   2.1842405  12.1410787
   9.4684553   2.6981512  11.3379085   9.0057307   2.7922410  12.7759683
 108.2203770  56.2665987  49.7525501 108.1446075  57.1981859  49.5460606
 108.4224892  56.2442684  50.6879044  17.9261982  28.9463854   2.8154945
  18.0315375  28.0965519   3.2431820  18.7075806  29.4391680   3.0661732
   8.1065547   6.7719024  14.1055560   8.8732564   6.3370878  14.4788337
   7.8656274   7.4321717  14.7553480 112.5336647  55.1399183  52.6562834
 112.3558617  54.8192024  53.5404539 112.7632332  54.3552160  52.1585226
  93.2356930  81.2060642  40.3946495  92.6133060  81.2624073  39.6696043
  92.9283810  81.8572998  41.0252666  33.3824730  46.0158348  24.0771556
  33.3742237  46.4923954  24.9072456  32.4579215  45.9042692  23.8558292
 110.0146103  18.1494713  68.6690044 109.2648315  18.3999193  68.1292534
 109.8442364  18.5555947  69.5188713  99.4254112  91.3374901  72.4150515
  99.1843128  90.5689144  72.9321480 100.3563404  91.4661026  72.5969124
  23.3594370   9.9771714  47.4823952  24.2492056  10.0512338  47.8274441
  22.8182769   9.7992408  48.2516289  30.9208894  32.3177481  27.9952645
  29.9709225  32.3972273  28.0817461  31.1736822  33.0567861  27.4419546
  25.2826810  31.0287428  43.6530209  25.9280109  31.5730023  43.2018423
  24.5089245  31.0584760  43.0903053  83.7548447   3.5694781  13.4686112
  84.0333939   4.0999204  14.2151177  84.5703697   3.3235565  13.0319405
  26.8376398  53.9024687  53.2196999  26.5192747  53.7108850  54.1018391
  26.6591001  54.8349476  53.0978918   1.5812252  12.9263854   2.3856793
   2.3023976  12.2977173   2.3553878   1.5970811  13.2661390   3.2804126
 103.5854435 105.2107620   4.8960128 104.2768669 104.5492458   4.9199075
 102.9095745 104.8721027   5.4831594  19.2929769  53.3190298  53.2006168
  20.0645804  53.4098673  52.6415062  19.6454501  53.2707214  54.0892458
  76.5504026  80.1460648  36.5400839  77.0627451  80.3863430  37.3120975
  76.7093039  80.8551025  35.9169888  21.2239647   3.4020177  66.2692547
  21.8576860   3.4152108  65.5520010  20.9117699   4.3048555  66.3296604
  80.5294800  28.3698058   7.7851558  80.5186939  28.9072442   8.5771632
  81.2611580  28.7133908   7.2724968  45.9157753  15.7965529  10.9148657
  45.1387787  16.0492897  10.4162312  46.0546780  16.5206969  11.5252376
  22.1547961  38.5421395  23.9643860  22.0310163  39.3356419  24.4852161
  21.9544768  37.8262115  24.5673370 105.5844116  95.1966953  72.9691076
 106.0360527  94.4459629  73.3546686 105.7622719  95.1273537  72.0311356
  46.4611530  93.9545155  44.1295099  46.3457012  93.4544659  43.3215141
  45.6580400  93.7965202  44.6257782  22.3459888  42.8304672  17.8165579
  21.6430664  43.2021809  17.2836781  21.9642973  42.7442265  18.6901188
 107.4515438  23.6355543  49.4141722 108.2760239  23.8943505  49.8258734
 107.6915741  23.4178376  48.5134935  19.6183860  61.9075489  55.9048128
  20.2149677  61.5776873  55.2328634  19.3731630  62.7809811  55.5995083
  87.3978138  95.3948593  46.1748409  86.9317913  95.7316589  45.4095840
  88.3238888  95.4997730  45.9566450  52.8574562  24.1656971  30.1070571
  53.7572908  24.4800520  30.0192165  52.5587702  24.0397143  29.2064190
  11.7915857  22.7391243  26.3775611  11.5743661  22.8611803  25.4533577
  12.2851193  21.9193125  26.4013553   7.3435980  33.4587431  37.2402263
   7.7947724  33.7157345  38.0443573   7.9112172  32.7947688  36.8488479
  15.9901798   5.7189304  53.0190134  16.2411630   6.4043391  53.6382484
  16.2018824   6.0833669  52.1595955   8.3059788  20.0966263  92.8139973
   9.1793901  20.4337215  92.6146317   7.7423108  20.8701754  92.8024960
  52.3069668  11.3589990  53.0629683  53.1632471  11.7771173  53.1534910
  52.4923468  10.5241191  52.6330328  94.3318748 103.6662865  47.0613718
  94.1567326 104.5441532  46.7223930  93.4702015 103.2524300  47.1111202
 100.7245255  40.0673580  32.4490166 100.1232624  39.7037506  31.7990184
 101.5930843  39.9488139  32.0645952  10.5900311   9.0402490  15.8622873
  11.4663446   8.7293279  16.0895193  10.1129580   9.0394795  16.6921270
  19.0379441  36.4566898  47.4765539  19.3680859  35.8322334  48.1225348
  19.6936357  37.1538568  47.4604845 107.1591568  31.8465567  61.0301924
 106.7745304  31.4206314  60.2641106 107.1099281  32.7821422  60.8340073
  93.5425472  19.1273832  20.1427245  92.6863670  19.0358353  20.5608130
  93.3436108  19.2581034  19.2155969  19.5814109  34.7720528  28.4309983
  19.2822957  35.6753778  28.3272386  19.9049389  34.7287416  29.3308234
  31.9812131  17.3617983  14.6434677  31.5834785  17.9774308  15.2591252
  31.8017268  16.4992416  15.0176501   8.9356512  41.6812468  28.7623167
   8.1607234  41.5588474  28.2139206   8.7536705  42.4786663  29.2595506
  20.1119518  52.2133017  13.9449835  19.7873580  51.7556524  13.1694674
  21.0488009  52.3242569  13.7830079  52.3041487  98.5141659  89.7735882
  51.6290760  98.7296677  90.4170704  53.0000639  98.1019306  90.2854443
  15.2752042  29.8019981  19.4344914  15.2044976  30.7433939  19.2763567
  15.8947039  29.4938850  18.7730408  27.9202604  60.9225988  12.3828018
  28.0791926  60.3747559  11.6141403  27.1873808  60.5000734  12.8306735
  99.4475079 103.4716225   3.8448715  99.9558258 103.2671547   3.0599907
  98.5350800 103.3896160   3.5674062  34.8192191  44.4006538  17.9821205
  33.9583731  44.4518757  18.3975136  34.7919440  43.5901499  17.4736202
  82.6299858  90.3391933  59.0190601  82.7340984  90.5768299  59.9404287
  83.1213665  89.5231247  58.9251900  17.4324954  72.2624016   4.9715436
  17.2191179  73.1955147   4.9735039  17.4728906  72.0239973   5.8976990
 108.2883930  47.4843025  19.8319066 107.8404808  47.7490616  19.0284753
 108.8586807  46.7644310  19.5620990  17.9549015  11.6916752  58.6124277
  17.8384292  12.4192214  58.0014086  18.7822437  11.2883282  58.3496618
  11.2668467  88.9590359  32.9734230  12.2020543  89.0259838  32.7807093
  11.0855556  89.7066689  33.5429955  69.7463608  97.4839497  89.2769527
  68.8062429  97.5780964  89.4303989  69.9340963  98.0906868  88.5608101
   8.2585144  35.6561327  30.1155782   7.7309525  36.3907027  29.8020244
   7.7383631  35.2716422  30.8211565 110.2053452  89.3021774  33.9891624
 110.5269241  88.8131237  34.7465563 110.9756470  89.7633171  33.6571670
  15.1619267  36.0951209  46.7979860  15.8907664  36.0956478  46.1774826
  14.7394776  36.9447613  46.6719770  60.0911856  91.0464954  79.7133780
  60.3980064  90.9105968  78.8169241  59.8280859  90.1756477  80.0110912
  20.4002929   3.7321785  32.2926927  19.8761010   4.0639773  31.5637469
  19.9173164   2.9676723  32.6065326  32.6950407  32.7176142  21.2068439
  33.4361196  33.1767607  21.6020870  32.1962214  33.4043336  20.7643199
  59.7846317  87.3929405  89.7377014  60.1543760  86.5953064  90.1162338
  59.6123457  87.9579544  90.4908943  42.9359055   3.0400732  34.0917659
  43.1714964   3.0661982  35.0191522  42.7175522   2.1229966  33.9258599
  30.7470107   6.1120695  47.1574545  30.5695200   6.5975821  46.3518429
  30.4917979   6.7109555  47.8591871  26.4610243  58.2931328  30.4499125
  26.2975264  57.3565197  30.5606055  27.4006295  58.3920431  30.6035089
  40.7350159  30.3438902  64.5004606  41.5505123  30.4644775  64.9869299
  40.9733772  30.5100226  63.5884237 113.5108280  34.5257521  38.0662203
 113.7094975  35.4608917  38.0185318 114.1799259  34.1682100  38.6499190
  16.9966519  20.7912159  41.4884329  17.8516209  21.2039804  41.6104364
  16.4069378  21.5173101  41.2853193  54.9138212  11.1488938  58.0336475
  54.7481441  10.3696179  58.5642242  54.5644379  10.9293270  57.1699619
  99.6858883  62.2428513  36.1126518  98.9649963  61.7661905  35.7011461
  99.9236012  61.7095232  36.8711281   8.4310538  60.9645748  52.1504498
   7.9038912  61.0448837  51.3555384   7.8280377  61.1834288  52.8608751
  13.3960235  26.2044501  46.5538883  13.7677622  26.9776273  46.1293364
  14.0416503  25.9620047  47.2176790  14.6979046  72.0816708  26.4659452
  15.3310788  71.3641357  26.4444280  15.1247835  72.7622652  26.9863248
  92.6874161   4.5703915  40.0379086  93.0649567   3.8459590  39.5390201
  93.4250355   5.1577199  40.2028036  10.8697999   6.6899270  39.5245075
  11.3929272   6.5968710  38.7283230  10.9142208   5.8298028  39.9421716
  15.8603418  50.8759212  52.4705696  15.4714346  51.4723349  51.8308258
  15.6866419  51.2867212  53.3175087  54.6021938  87.7617931  87.7402878
  54.1308069  86.9867802  88.0458736  55.5050373  87.6208591  88.0253220
 107.5592041   8.9454716  57.6011372 107.5658798   7.9926008  57.5104475
 108.3764935   9.2306787  57.1925592  60.6009102 100.9658241  85.7075596
  61.4924049 100.6312943  85.8053398  60.1652479 100.7294846  86.5264416
  16.0173261 101.9645882  21.3790679  15.0739133 102.1188831  21.3301015
  16.1331224 101.0781670  21.0368896   1.6367200  50.7130003  15.1855493
   0.9130446  51.2876081  15.4352498   2.3312956  50.9165812  15.8119297
  34.4452095  14.5518148  61.7723370  33.7793851  15.1976502  62.0085716
  34.4005299  13.8961911  62.4683189 111.0730934  45.3563786  46.9941187
 110.4749966  46.0248756  46.6600132 111.2186146  44.7718430  46.2502337
  25.3020430  -0.1486042  36.7465591  25.1005340  -0.4184595  37.6425529
  24.9331570   0.7315759  36.6728163  24.5500374   4.3173516  30.6502986
  23.7167501   3.9110172  30.4120517  24.3045831   5.0670379  31.1924744
  10.9641886   1.4415754  39.7008610  11.5165246   1.0664902  39.0149546
  10.1152778   1.5742175  39.2789745  50.2121067  42.7972412  61.9859982
  51.1044216  42.4756241  61.8572712  50.1897669  43.6339521  61.5216303
  92.6284695  59.7742271  34.7173309  93.4374714  60.2809763  34.6469212
  91.9682217  60.4131699  34.9857545 106.3962364  22.1987939  21.3173771
 105.4564953  22.2058558  21.1355329 106.7130756  21.3929081  20.9094644
  90.1220894  92.0291901  64.9062204  90.4042053  91.2829971  65.4352236
  90.5722904  91.9134331  64.0694714  15.8079135  10.2848804   4.0438092
  16.4430487  10.5311024   3.3713436  16.2158108   9.5492458   4.5006385
  22.3803902  77.7225256  60.7865953  22.3370481  76.9460487  60.2285290
  23.1713438  77.5968504  61.3108397  35.4942894  10.3465545  44.2282629
  34.7979474  10.6945038  44.7852802  35.0399923  10.0254500  43.4493303
  83.4131432 103.7870979  23.5696793  84.2518997 104.2475033  23.5970640
  82.7736855 104.4367218  23.8617492 101.2414932  98.3322716  54.1863441
 102.0227146  98.7311840  53.8032007 100.5381012  98.5464382  53.5734844
  32.0619535  20.5050135  28.6819601  32.6921177  20.4594898  27.9628968
  31.7156291  19.6155417  28.7535977  17.2587168  10.4430115   8.2994699
  18.1831563  10.2302909   8.1714386  16.9402087  10.6634367   7.4241430
  19.7541428  25.6298351  25.7383847  19.5173335  25.0095534  26.4278817
  20.2487373  26.3132906  26.1905980  98.5448265  25.7338667  16.7864013
  99.4992447  25.6621671  16.7726815  98.2643318  25.0758791  17.4224865
  86.3335800 106.3079643  61.2050915  86.4093399 107.2364330  60.9850025
  85.4223728 106.0891533  61.0100269  27.0833611  12.1568406   3.7790433
  27.1832180  12.7722287   3.0527121  27.4906325  11.3490450   3.4662676
   1.4954866  59.4642401  57.8368950   2.2699676  58.9917231  57.5317049
   0.9176287  58.7817764  58.1783009  14.9201274  19.5291507  43.2536221
  15.5550158  19.7104359  42.5605965  15.3322721  18.8468158  43.7835169
  36.1950874   2.6798293   0.3595119  36.4521575   1.8521637  -0.0468341
  35.3891540   2.4739751   0.8331447  17.1245134  51.0008812  27.3327422
  17.3781073  51.8887234  27.0804477  17.8989732  50.4692221  27.1489429
   9.3492949  70.5926180  88.4498882  10.0898540  70.3159857  87.9101849
   9.7358567  70.7932520  89.3022633  34.5381117  89.3865108  82.8295994
  35.2573490  89.8336315  82.3834801  33.7489748  89.7083664  82.3938179
   2.6263949  43.7810469  45.1963234   2.0439389  43.0248880  45.1242161
   3.4972119  43.4314823  45.0073338  19.7889674  54.0650940  31.6598010
  19.9453950  53.1261492  31.7605019  19.2154789  54.1318417  30.8963299
  31.4940810  20.0893450   6.1593747  31.9654727  20.8375931   5.7931185
  30.6681561  20.4571390   6.4737111  37.8323889  46.5928698   7.4832648
  38.1801343  47.3291111   6.9800216  38.1402993  46.7465687   8.3764613
  38.1759763  20.4408789  17.3992300  38.2836747  20.7095814  16.4868522
  37.3460102  19.9642038  17.4121547  60.9646702  54.6619034  92.5259399
  60.1847172  55.1574802  92.7755642  61.3963795  55.2091599  91.8699169
  45.2606392  12.9317558  41.8268156  45.0184727  12.0063698  41.7915201
  46.0233593  12.9578662  42.4045753  17.9022968  22.0754886  33.3174920
  17.5771403  21.5622663  34.0571594  17.3046482  21.8662882  32.5996590
  31.9003987  42.4488974  43.3934259  32.8249359  42.4498463  43.1455135
  31.8829203  42.8663826  44.2546082  93.9412212  32.6352739  41.9581795
  93.7488461  31.9026184  41.3729954  93.0913925  33.0476117  42.1130896
 102.6924324  48.5873652  32.3747277 103.1732464  48.0690527  33.0200195
 103.3729553  48.9826155  31.8298483  17.8326547  38.8484979  12.2843993
  18.6589515  38.4856963  12.6035225  17.1764326  38.1924057  12.5192332
   4.8595098  10.5375779  78.4364557   4.5767736  10.1336193  79.2568874
   5.8136648  10.5737245  78.5036325 105.4940128  28.4712243  37.2795916
 105.8427048  28.1260204  36.4577150 106.0660076  29.2089248  37.4913669
  25.4641199  51.2231970  77.8840923  25.5218911  50.3612089  78.2962513
  25.0166726  51.0619831  77.0534086  29.2346263  64.3039751  21.1699033
  29.1298771  64.8030043  20.3598237  28.7814832  64.8252344  21.8326139
   3.4966329  10.0163591  44.5178461   3.4488463   9.3922532  43.7936640
   3.0372566  10.7920873  44.1962099  27.9587483  10.7327306  45.1075125
  28.5648918  10.1638973  44.6329069  27.5018072  10.1460207  45.7101774
  30.5937314  49.4449615  22.7139425  30.0170445  48.6830139  22.7695966
  31.4766145  49.0759182  22.6904345  16.9250131  57.5444937  31.8287778
  16.3667417  58.2827568  31.5847802  17.8174734  57.8701735  31.7118144
  51.8522692  35.5212116  78.5414791  52.3951674  36.2127876  78.9199162
  52.3796940  34.7273278  78.6298227  26.9998622  31.5157604  35.2494383
  27.8299928  31.6447115  34.7906494  26.7384672  32.3949146  35.5232859
  31.7224669  61.2465000  46.3505983  31.5275693  61.2488794  47.2877455
  31.7687845  62.1726465  46.1132431  24.3086934  68.1635952  10.1316190
  24.8524046  67.3758125  10.1355135  23.5772014  67.9468966   9.5535249
  26.3648510  60.4418182  28.5893106  26.3465381  59.6187067  29.0775585
  26.3452578  61.1208153  29.2637062  29.5420194  48.9554882  40.2457666
  30.1863933  49.1140556  40.9356022  29.4772720  48.0019331  40.1930904
  24.4363070  15.6339288  61.9502831  24.7083807  16.5201330  62.1887112
  23.6941767  15.4482794  62.5256157   8.0353165   6.5241784  42.5518036
   8.1512672   6.7297089  43.4794617   7.2710419   5.9483850  42.5277662
  27.8496814  20.5253553  56.2720013  27.8600574  21.4210558  55.9345913
  27.8850818  19.9744260  55.4900455  90.9687901 107.0892811  49.5965433
  91.1253071 106.2701797  49.1266441  91.0004330 107.7641964  48.9185143
  11.4175045  59.1258955  54.2041302  12.0354509  58.7531853  53.5752726
  11.6093636  60.0636625  54.2014360  66.2920570 104.7493553  38.4635997
  66.9091988 104.2271709  37.9510641  66.5075397 104.5490265  39.3744612
  82.4922562  17.1922338  13.7607133  83.2146072  17.8065169  13.6299932
  82.3517418  17.1857274  14.7075224 107.0258999  59.2422199  47.1002865
 107.1080303  58.9760303  48.0160570 107.0427513  58.4205389  46.6095877
  26.5215468  17.7749681  20.7286525  26.8911672  17.2229040  21.4177394
  25.6736183  17.3768449  20.5318117  12.7057636  22.1660161  46.4818716
  11.9221687  22.6944494  46.6334295  13.1504846  22.6003814  45.7540131
  69.2001867  72.5664520  90.7622147  69.2527151  73.0866957  89.9604607
  68.7398767  71.7690277  90.5005741  24.0070915  50.5544186  13.1472528
  23.0624819  50.4504061  13.0326879  24.2898440  49.7376585  13.5585856
  41.7263412  53.9142704   9.7840458  41.0118294  53.4428692   9.3556917
  42.3748398  53.2384253   9.9813080  37.5442815  23.0760074   5.0173485
  37.0658898  23.4559035   4.2804271  38.4220982  23.4521246   4.9524939
 105.0205803  25.2935290  18.9496326 105.1101017  24.8136234  18.1262803
 104.2061996  25.7869458  18.8519406  76.8156958 106.5084171   4.0255049
  76.8510342 105.6577206   4.4628802  77.6804161 106.6092587   3.6276037
  64.5484495  63.3346939  87.4261570  63.7688637  62.7853918  87.5082588
  64.7582102  63.5886908  88.3248806  12.6266277  62.9968262  56.7761850
  13.4125769  63.4318781  56.4456558  12.7226174  63.0197954  57.7282810
  27.4239922  58.0546379  25.1194882  27.9026890  58.6938953  24.5918226
  26.5056252  58.1919146  24.8871326 111.7533875  90.9415627  35.7948399
 112.6498508  90.7296181  36.0549641 111.7431545  90.8154869  34.8460340
  32.1583867  59.2531347  44.5275164  31.3146544  58.8253498  44.3814087
  31.9832492  59.9015665  45.2094936  31.9274855  69.3000078  16.2908065
  31.3799644  69.7428465  16.9391453  31.3074160  68.8224125  15.7397628
   7.7141231  20.4044414  22.2150517   7.4164414  21.2358570  22.5843310
   7.8174293  19.8290384  22.9729915  37.9167318  40.7360458  37.1299982
  37.4902773  39.9997163  36.6916037  38.7791967  40.7927752  36.7187023
   5.3794885  44.5526314  14.7409022   6.2621176  44.8419189  14.9722230
   5.5164057  43.7745619  14.2004442  12.5637722  52.3095083  19.9245131
  13.4700930  52.6139259  19.9708056  12.5118911  51.8372202  19.0935588
  21.6221213  83.0323601  40.9759140  21.0207367  82.5114918  40.4436874
  21.0670352  83.6975479  41.3828993  34.2925954  60.4579449  36.0925746
  34.3885660  60.3618526  35.1450586  35.1075649  60.1080036  36.4525700
   3.2917133 101.5896797  52.6149368   3.1735507 102.1182346  53.4041786
   4.2323530 101.6254807  52.4413061  47.8132868  40.9241152  56.2813377
  47.1229649  41.5548658  56.0767889  48.3204937  40.8535004  55.4726458
  34.4863653  29.1657138  12.0138764  34.3627024  29.6043348  11.1721218
  35.2086711  29.6390343  12.4267602  36.9620514  30.3692579  62.5764561
  37.7577877  30.8050942  62.2713614  37.2148037  29.4514060  62.6759386
  25.1083732  58.0670261  35.6397390  25.8000040  58.1534052  34.9836779
  25.1072526  57.1368408  35.8655381 104.1756821  45.5864096   4.7035459
 105.0085545  46.0512114   4.6229026 103.7131882  45.7804585   3.8882688
  19.4719803  54.0321064  44.3715000  19.0744483  54.8858547  44.2002869
  20.3841901  54.1338682  44.0999317 107.3635292  26.3681364  36.2022138
 107.3392963  26.1128426  37.1244240 107.9926300  27.0888305  36.1696553
  21.4293909  54.5559740  67.8025532  20.9031105  53.8586378  67.4114180
  21.3883400  55.2715635  67.1681452  11.1957276  46.0381794  32.7090549
  11.2172544  45.1742268  32.2975278  12.0118535  46.4553261  32.4330926
  12.0052934  87.9695606  20.5297470  12.3362303  87.0915794  20.7190895
  11.0530889  87.8803444  20.5694962  32.0950532  18.5623884  34.8827696
  31.4350343  18.1247294  35.4204130  32.8881884  18.5481942  35.4184604
  64.9398565  93.2656574  70.4263592  65.6507635  93.8871956  70.2697277
  64.7132683  93.3882809  71.3482332  30.8031583  27.6165771  38.6259294
  30.9245968  27.8012300  39.5572639  30.6268072  26.6764808  38.5891509
  21.6036773  55.7575130   6.1468512  21.5118337  54.8349714   6.3850051
  20.7255268  56.0229158   5.8736330   7.5220191  55.2124071  25.6866002
   6.9579363  55.2006817  26.4598441   7.7070475  54.2898035  25.5110979
  22.9129100  27.5927997  14.7041023  22.2263622  27.9635882  14.1496646
  23.1134748  26.7468953  14.3035388 110.2729893  14.7786796  15.3458238
 110.3178692  13.8287580  15.2368855 111.0272980  15.1114368  14.8594868
   3.1728956  12.7079058   8.1915170   2.9460144  12.1130574   7.4767357
   2.5611895  13.4382594   8.0986160  19.2506075  18.1097603  35.0324416
  19.4659531  18.8910711  35.5417681  18.4435272  18.3391070  34.5717335
  23.6611843  27.0954752  17.4145198  22.7778840  27.0624971  17.7818406
  23.5296273  27.0333195  16.4684427  96.3788700  10.0333869  30.4623985
  96.2712765  10.3864121  31.3455915  96.0078144  10.7043803  29.8894072
 107.4261570  92.3165798  25.8800983 107.7417850  92.3519897  24.9771309
 107.2928715  93.2327080  26.1233377  22.9882622  49.2134762  58.5595512
  23.8442111  48.9609194  58.2134342  22.7374601  48.4878254  59.1311836
  89.5587158   9.2623192  32.3390126  90.1855755   8.6213470  32.6743364
  88.9575863   8.7494785  31.7987657  56.8689728  94.3508339  29.3313670
  57.7701521  94.4649982  29.6331406  56.4483547  93.8381958  30.0216722
  22.1996737   9.7213662  11.5138721  23.0909705   9.5445156  11.8147802
  21.7162895   9.9380594  12.3111272  24.2321038  25.2360415  23.2400537
  24.4915771  24.6007848  22.5727034  23.2873082  25.1136112  23.3327889
  49.3118954  75.0587320  10.4420471  49.3359709  74.8989820  11.3855159
  49.0856695  74.2102194  10.0611532  45.2761173   6.4277929  57.3730469
  45.1387548   6.0863143  56.4894438  44.9574041   7.3295116  57.3335743
  13.5293388   6.8489850  41.5195513  14.1570055   6.1300111  41.4464569
  13.4613764   7.0129007  42.4601603  23.5846066  20.9237480  21.0877299
  24.2129302  21.1652350  21.7682624  24.0910959  20.3956819  20.4706001
  43.3366871  27.2643280  42.1940947  43.4623289  26.5506792  42.8195143
  43.4187078  26.8480587  41.3360596 104.8927975  56.9493628  21.5812469
 104.3713093  57.4254704  20.9350181 104.8863602  57.5119162  22.3556662
  39.9965668  17.4879956  41.0519600  40.3272533  17.2869802  40.1764774
  39.1930032  17.9842865  40.8963490  43.1399727  32.3937607  44.3167686
  43.0228901  33.2661605  43.9406824  42.2728586  31.9918275  44.2639589
  65.1634312  49.7056198  18.6232519  65.1163960  49.0201807  17.9567707
  66.0696650  49.6793461  18.9303017  21.5434146  50.1329470  33.7435937
  20.8499050  50.7095098  34.0643001  21.5600276  49.4078445  34.3682432
  93.2286167 106.3449192  91.1064053  92.3244858 106.1697388  91.3673306
  93.3879185 105.7455254  90.3773117  31.1020136  15.7052958  12.1773791
  31.0264063  16.4423466  12.7834082  31.5573573  16.0663545  11.4167678
  56.5494156  21.1976027  12.5932765  56.0626745  20.9839725  13.3893156
  57.4565125  21.2898016  12.8846633 112.8341484  15.2658248  14.2488146
 113.3086967  14.6506763  13.6896873 112.9356384  16.1123323  13.8136649
  82.0088387  96.7375660  47.1179342  81.3731194  96.2547493  46.5897655
  82.7597046  96.1479568  47.1872234 107.0738411  51.2239361   5.5410677
 107.8971195  50.7876396   5.3217638 107.3320770  51.9536591   6.1041379
  10.5888557   9.3187797  87.5862598   9.9503869   8.9531302  88.1985378
  11.1728215   8.5877603  87.3842049  91.1332321   4.8689029  77.5835276
  91.8315601   4.2142868  77.5770760  90.4677105   4.5034218  78.1664038
  16.0545444  21.7272425  27.1565580  15.6837237  21.1943817  26.4531493
  15.8767271  21.2285566  27.9540062 107.6529884 100.0087357  26.7883039
 107.0811367  99.5182800  27.3787951 108.5296059  99.6677303  26.9657516
  23.1885386  59.1928720  48.1841946  22.9738069  58.2924795  47.9404259
  22.9318476  59.7145700  47.4238205 110.8185768  97.6910591  13.6054933
 110.1625633  97.2783184  13.0437875 111.5322113  97.0545292  13.6479104
  54.6335077  39.6714807  21.6386795  54.4727612  40.5206585  21.2272263
  55.5003262  39.7578192  22.0354176   7.4039263  37.2987723   5.9850317
   8.0687231  37.8608418   5.5870938   7.3213685  37.6233745   6.8817192
 111.6318893  29.5061493  20.6117535 112.0088577  28.8703728  21.2199616
 111.6077995  29.0485239  19.7713780  90.7703018  87.0538235  52.1506739
  91.2734985  87.8056717  52.4633169  91.4227104  86.4781761  51.7516613
  53.8640547  26.6230989   6.6856760  54.4557905  26.2268138   6.0461140
  52.9920864  26.3345027   6.4162022 106.1332798  39.4365358  19.9052370
 107.0408630  39.1339421  19.9361682 106.0434818  39.8364353  19.0402234
  51.1390543  25.8890820  54.7690105  51.3239813  25.4155278  53.9579725
  50.2842569  26.2934828  54.6206570  49.3531704  13.4695244  33.1595612
  49.6588850  14.3701947  33.2670903  49.4401264  13.0815113  34.0302587
  61.6749716  18.4048247   0.6325158  60.7617569  18.4978342   0.3611923
  62.1588278  18.3006132  -0.1867865  23.3944464  33.5250854  55.2695799
  23.9381075  32.7597141  55.4563236  24.0211725  34.2279410  55.0979948
  39.3487644  45.7808876  63.1075001  38.6276650  46.4031124  63.0121899
  39.1513848  45.0872803  62.4780750  16.6034162   0.8588234  12.6866937
  16.0298896   0.0943197  12.6334655  16.8223798   0.9297509  13.6158085
  30.5387545  54.7901773  26.7041183  29.7857666  55.1995564  26.2779117
  31.0082912  54.3537378  25.9932828  14.6643782   5.6495887  33.6744452
  15.1753426   5.4920942  32.8805041  15.0033808   5.0162232  34.3070245
  42.5901031  38.8539481  38.2921648  42.4354267  38.9994717  37.3588204
  42.1407700  38.0308080  38.4839225  60.3466797  13.3472168  90.5891228
  60.9649324  12.8346467  90.0682831  59.5866060  13.4580863  90.0179482
  13.0985999  57.3623085  37.7825522  12.4099469  57.1848202  37.1418571
  13.7240171  57.9157734  37.3148322  50.7154369  38.2022810  12.1623111
  51.2042332  39.0005636  11.9621789  51.3829327  37.5177145  12.2075558
  10.1050067  60.4400206  14.7825062   9.6868443  61.1381769  15.2864420
  10.9662139  60.7910252  14.5559037  46.6087580  26.3460994  40.0975466
  46.5522385  25.8093572  40.8880806  47.3030853  25.9381056  39.5801687
  40.1372862  75.8970308  56.2531471  40.5672789  76.7223358  56.4772129
  39.5953250  75.6945705  57.0157194  29.3111014  33.8317275  51.1128330
  28.8973689  34.3705034  51.7872000  28.6823964  33.8268209  50.3910732
  45.5665827  39.4369411  30.1347184  44.6452379  39.3002272  30.3553271
  45.8765793  40.0698900  30.7824135 112.8694153  17.4944091  24.2976022
 112.4547863  17.7032363  23.4605193 112.8959942  18.3285248  24.7664046
  17.4532688  19.4835722  25.9924197  18.2684028  18.9850843  25.9350038
  17.7249289  20.3974819  25.9075594 109.9228477  26.4273119  17.1473384
 110.4302120  25.6724668  16.8489695 109.0839195  26.3465095  16.6935802
  35.8682561   9.8692006   1.6978465  35.5302763  10.3186059   0.9232258
  35.0859237   9.6076596   2.1834204  41.4470863  55.6042910  33.8659978
  41.7880154  55.3936338  32.9967308  40.7909107  56.2830162  33.7079000
  89.3637371  28.7363076  40.1109314  89.4801712  29.4132400  40.7775879
  90.2541542  28.5035849  39.8478246 112.8876686  10.4137433  74.1372347
 113.0290222  11.0070777  74.8749352 112.8567982   9.5427126  74.5329428
  43.1017542  16.5806389  42.4004126  43.3137178  15.9691513  43.1056690
  42.1452761  16.5811467  42.3632431  21.4678431  24.4742036  24.1176009
  20.8809114  24.7079468  24.8367023  21.6555476  23.5455298  24.2538548
  41.0911131  44.1552782  41.0307074  42.0420599  44.1907787  40.9274054
  40.8534336  43.2691956  40.7575846  61.0623646  42.9812860  26.6182685
  61.6973972  42.4643850  26.1225080  61.4834976  43.8333464  26.7317486
  12.6642942  52.1315527  71.1638927  13.1438792  52.0398378  70.3405952
  13.1364548  52.8136635  71.6414118  77.0518732  30.5143619  52.7932549
  78.0081320  30.5554008  52.8041029  76.7764807  31.4036727  52.5707197
  15.8219421  39.8106909  25.9207129  15.1031208  39.4518757  26.4410806
  16.0602725  39.1032648  25.3215647   8.7388164  42.9489517  44.7470617
   9.6229792  43.2985687  44.8577738   8.2061070  43.4430742  45.3701973
  52.6514292  31.3545704  56.3368464  53.1996775  31.8659902  56.9319153
  52.0540190  31.9953871  55.9512472  66.9277716  43.1810570  32.9993415
  66.2452984  43.7404776  33.3701682  67.2828627  43.6883068  32.2693825
  57.1704674  51.2825632  18.4387398  57.8782415  51.7279053  17.9729545
  56.5665150  51.0065460  17.7493250  23.1883335  40.9152126  58.0963230
  23.7233996  41.6127014  57.7175856  22.2875142  41.2227011  57.9952860
  38.2335281  49.6111917  49.9993563  38.6288285  49.7618771  49.1407156
  38.6264777  50.2767229  50.5640602  23.7153578  68.9253712  36.0535407
  24.4488883  68.9476442  36.6680861  24.0524697  69.3465281  35.2628350
  25.9076905  50.1883030  47.4367762  26.7213511  50.5424309  47.7956343
  25.5695963  49.6180439  48.1272364  32.9085684  33.9944935  40.9520483
  32.7460074  33.4106922  40.2111149  33.7163544  34.4537878  40.7223511
 104.7195816  47.8076553  11.4521337 105.5950737  48.0695057  11.1671913
 104.3215561  48.6155987  11.7762256  88.5938644  26.1222887  81.1351299
  88.9316177  26.9049048  81.5706348  89.2776108  25.4643154  81.2608337
  66.6639757  26.1365247  11.8080699  66.9122458  25.2295017  11.6294491
  66.0204840  26.0741401  12.5139415  35.7471442  38.6882353  35.9501266
  36.3246942  37.9658198  36.1966705  34.9154663  38.2667708  35.7335401
  26.7269993  37.3936725  72.9425478  26.5727425  37.4066424  71.9979477
  25.9488320  37.8056574  73.3179903  41.7072439  52.0848846  41.6846991
  40.7863617  52.1983004  41.9199514  42.1327925  52.8862286  41.9896412
   2.4150760  41.5893555  10.0376713   2.8062001  40.8338451  10.4763722
   3.1578431  42.1554661   9.8277956  16.0379493  71.0016775  57.3401356
  15.1858342  70.7031250  57.0223379  16.6538072  70.7406950  56.6554213
  25.5598187  39.9215126  39.1195726  25.9741378  39.8828626  39.9815941
  24.6659398  40.2146816  39.2963886  45.8839512  30.3039289  61.3978338
  45.3278446  30.5228639  60.6501389  45.3545666  29.7031379  61.9222736
  62.4478245  40.8610868  25.3302598  61.9674206  40.0367165  25.4067659
  62.0810843  41.2806845  24.5520091  12.1542692  79.8031521  30.1732183
  11.5585101  79.0711689  30.0135231  12.7348995  79.4922495  30.8677983
  46.5544224  84.1609573  51.5698814  45.9395599  84.8325348  51.2746429
  46.9448662  83.8227749  50.7640171  40.9843874  34.0789437  32.1628237
  40.8967638  33.2993865  31.6143274  40.8852625  34.8117828  31.5550804
  63.3303070   2.6055485  31.1236787  62.4037647   2.4959615  30.9098125
  63.7939978   2.2944646  30.3462124  63.6778498  49.4036245  23.7281847
  63.6533308  50.1594782  24.3149710  63.7163019  48.6471891  24.3134689
  36.3313627  17.6452231  53.1292820  35.9524393  16.8466949  52.7618504
  35.6353235  18.0116463  53.6747122  98.3829308 101.3559437  24.4974899
  98.4657860 100.5024529  24.0721488  99.0685368 101.3582325  25.1654506
  28.8474178  55.4744577   6.8461090  29.0743709  54.9092960   6.1076528
  28.0165625  55.8768988   6.5932196  33.8760161  58.2895947  18.5870850
  34.6970797  57.7997732  18.6335719  33.7351370  58.6061764  19.4793642
  71.1723948   4.3073592  80.9841919  70.9797096   3.3700943  81.0094452
  70.7197475   4.6239609  80.2024651  43.4706640  21.2750745  42.7092648
  42.9185295  22.0052648  42.9889107  42.8546572  20.6238723  42.3735523
  26.6786742  38.4225512  64.0687561  27.1174717  38.2348347  63.2390308
  27.2862363  38.1070471  64.7377539  33.9970398  52.0304060  44.9599981
  34.0973902  52.8072119  44.4097948  34.5893645  51.3852262  44.5738220
  57.7351332   5.9542817  54.8472357  58.3035707   5.4361206  55.4169893
  57.4222565   6.6666156  55.4048395  17.0319271  27.8033519  32.0770836
  16.8563056  27.0090532  31.5726256  17.2893131  27.4854589  32.9424882
  63.6405706  50.7859993  33.3135629  63.0986691  50.0321913  33.0804372
  64.4224072  50.6966162  32.7686119 100.3236771  91.1271763  92.2436333
 100.9447479  90.8534527  91.5686703 100.5757999  92.0271397  92.4503231
  98.0246449  54.9679708  47.4208784  97.8953171  55.2962923  46.5310955
  98.4934139  55.6713963  47.8699636  21.1536860  12.3683977  77.7487659
  21.7372131  12.5894368  78.4746265  20.8780837  11.4694703  77.9282236
  24.9888444  54.7041607  23.0805349  25.7947731  55.0555944  22.7021098
  24.9306202  53.8133621  22.7351117   7.0473433  10.4983759  18.4354293
   6.9412762  10.1852381  19.3337202   6.5300602  11.3029671  18.3996069
 107.6367283  31.2644339  47.6974106 108.0958366  30.4245782  47.6875210
 107.5871658  31.5211582  46.7766094  81.9956398  23.7606478  64.8708582
  81.9866276  23.2431912  64.0656281  81.6824150  23.1586552  65.5459309
  17.6666331  13.2267249  47.1184492  18.1287789  13.6020601  47.8679657
  18.2570481  13.3671129  46.3782263  30.0139308  31.9338822  20.1911926
  30.1303506  31.6674376  21.1031604  30.8799100  32.2363234  19.9176157
   9.1496795  43.9157057  30.6419754   8.7686473  43.1259394  31.0257959
  10.0950456  43.7888098  30.7220650  23.0467033  58.5700893  65.0301075
  23.9175272  58.1968546  65.1664734  23.0831265  59.4256115  65.4578686
  25.2513647  36.1513615  56.6202736  24.9210477  35.6596470  57.3721647
  25.2731180  37.0603681  56.9193792  16.5177727  73.4706736  54.4686699
  17.2061372  73.4833479  55.1336718  16.8445563  72.8720188  53.7970591
  31.4152169  28.8331580  46.4509058  32.0387888  28.6149907  47.1435738
  30.5941105  28.4293842  46.7319441  41.5788031  72.4853992  23.9485335
  41.7109394  72.2044659  23.0430770  41.3211489  73.4046364  23.8789248
  44.9560833  15.8892369  59.7088432  45.3515625  16.7552185  59.6093321
  45.1778984  15.6258225  60.6019497  12.7358961  75.3935385  27.6513672
  12.9770911  76.2968063  27.4460173  12.4676538  75.0204563  26.8116713
  38.2627153  59.1163683  65.1596880  38.8952971  59.0901327  64.4417810
  38.5154986  59.8832226  65.6737518  20.8179879  67.2774458  35.5389214
  21.0048103  68.1366730  35.9171414  20.5802846  66.7321920  36.2888718
  35.2557421  50.5656052  42.7072620  36.1338329  50.2528715  42.4895763
  34.9862862  51.0743952  41.9425678  23.1673288  39.1187119  32.3436999
  23.3592367  38.9506626  33.2662845  23.2836318  40.0634813  32.2430968
  35.2375245  29.7428179  38.1276727  35.8862972  29.2586231  37.6169062
  35.7274675  30.4721737  38.5074425  29.2956781  10.6976414  37.6223946
  30.1037383  10.5370438  37.1350765  29.3747997  10.1510346  38.4041834
  17.1227932  21.8211365  11.9088244  16.5130091  21.1590552  12.2344708
  16.9772327  21.8362069  10.9628773  28.6198092  44.2763805  34.2951632
  28.4058142  43.4607077  34.7480559  28.3473396  44.1263056  33.3899164
  28.1182575  20.6247354   1.2879793  27.2119164  20.7869601   1.0263243
  28.1659794  19.6766865   1.4110886   4.9990916  30.0581694  38.3944964
   5.2640438  30.2391648  39.2963123   4.4111413  29.3060255  38.4639692
  19.3320465  44.2552567  53.7137270  19.9257290  44.3752193  54.4549274
  19.4557858  45.0390911  53.1784439   1.2158037  54.4112635  37.3438954
   1.5946648  54.9390650  36.6409564   0.8883328  53.6265421  36.9043398
 107.9987335  93.6449337  20.0854421 108.6727333  93.0515480  19.7540295
 107.4437714  93.0931282  20.6365871  20.2367616  52.4446821  38.4402418
  19.3843222  52.7769041  38.1588078  20.6451607  53.1840134  38.8906074
  36.5832472  30.1825333  48.9258671  36.0772610  30.1744533  49.7383595
  36.1839366  29.4986320  48.3882236  34.4224286  28.2524300  50.7842207
  33.6759853  28.7354469  51.1388254  34.7521424  27.7435660  51.5248823
  31.1770511  32.9353929  36.0337138  31.8538022  33.5924554  35.8708978
  30.8659697  33.1261563  36.9186258 107.1230888  19.9687064  49.4287062
 107.8503418  20.5868125  49.3561268 106.8108749  19.8596680  48.5304499
  28.4698343  66.1749268  26.7389750  28.5227656  65.9675741  27.6719451
  27.8907847  65.5041647  26.3770175  30.6867647  81.9690800  92.3346615
  31.2989402  82.4202824  91.7533779  31.1465526  81.9166088  93.1725597
  43.7254143  11.9057703  52.1214771  43.8070393  11.9218481  53.0750561
  42.8769207  11.4929485  51.9606447   8.4689701  59.6783781  25.9880185
   8.6474526  60.2899694  25.2736449   7.6846981  59.2060566  25.7086325
  35.7546115  39.3834615  60.1750278  36.3999343  39.8377013  60.7167435
  35.0097895  39.9834204  60.1360178 109.1058540  88.1367493  36.9970632
 110.0515366  88.1935120  36.8602991 109.0125656  87.7876949  37.8834558
   7.3464441  72.3545790  37.8808498   6.4618677  72.3225737  37.5165272
   7.9125643  72.4999475  37.1228218   5.3159267  83.9992809  28.5287786
   6.2339824  84.2702007  28.5317636   5.2930105  83.2370853  27.9501987
 105.3909397  38.2119584  26.3246036 105.3696346  37.9280663  25.4107189
 106.3174057  38.1816316  26.5632892  31.7820716  46.4206886  17.0078290
  32.4661469  46.0832834  17.5861287  31.0956860  46.7256165  17.6012301
  91.0838127 103.6527061  48.7627506  90.1452446 103.7040806  48.5819530
  91.3914108 102.9220581  48.2263088   9.7217852  39.0636969  23.8628221
  10.3211796  39.1147423  23.1182742  10.1482749  39.5766783  24.5492554
  43.5599947  88.9238453  46.9294739  43.4418774  89.2031002  46.0215712
  43.1489182  88.0603504  46.9698715  42.4854898  66.8339586  46.4342165
  42.7848482  67.4075699  45.7288170  43.0237389  66.0471582  46.3478470
  78.7227678  -0.0780768  46.4984703  79.3128109  -0.1975548  47.2426558
  79.2019033   0.4982187  45.9030342  22.5615358  48.6607075  27.9844332
  22.1625662  48.3031273  27.1912146  23.1914639  47.9936552  28.2573199
  56.1042356  23.7441158  46.2437630  56.2954807  23.9937425  45.3396940
  55.5706596  24.4628000  46.5829182  81.8312645  27.7500629  49.3834925
  82.5638580  27.5679374  49.9720287  81.2191391  27.0295048  49.5329142
 111.8372440  13.6666536  20.7051277 111.1435795  13.1092906  20.3524160
 111.3726711  14.3542385  21.1822391  46.4527225   9.7913122  52.6440668
  45.9202385   9.1666883  52.1515894  46.0074615  10.6304765  52.5266886
  69.5661163  42.4370575  22.6736712  69.6029043  42.2278118  23.6069942
  70.0385666  41.7211056  22.2488976   1.8657617  29.0335369  15.8307171
   1.9395664  29.7205925  15.1683426   1.9839244  29.4901633  16.6636419
  45.3854561  27.7243114  66.1981392  44.6232653  28.2700205  66.3917828
  45.3765821  27.0505548  66.8779993  29.0689278  48.5131073  30.5124354
  29.4428825  47.7667379  30.9807587  28.1288576  48.4567070  30.6836581
   7.1626294  27.5189853  23.9600992   7.0927411  27.1349573  23.0861020
   8.0953360  27.7066135  24.0653849  25.0567603  44.7213268  15.9033287
  25.9081173  45.1542091  15.8397877  24.8905563  44.3890953  15.0211537
  36.3544869  29.0887451  19.0412986  36.3471818  28.8632751  18.1110620
  37.1307206  29.6384907  19.1484094  28.8935685  51.4470577  16.3655961
  29.4147730  51.7606020  17.1046960  29.1437364  52.0160103  15.6376266
  39.2213440  43.1104040  37.7644610  38.6235452  42.4180603  37.4824595
  39.7997141  43.2477331  37.0142198  35.5669522  36.1170912  47.0681572
  35.7834935  35.7186055  46.2252188  36.3267946  36.6597772  47.2787809
  23.9456248  63.0386305  18.2068467  24.3478680  63.5854530  17.5319993
  24.6793509  62.7484083  18.7487411  54.8934221  27.3323965  21.1703753
  55.5023432  26.7237902  21.5887570  54.6891546  26.9257998  20.3282428
  25.3749084  56.8701029  11.4987171  26.2980223  56.7800713  11.2621081
  25.3520632  56.7051029  12.4413121  56.1742210  40.6478357   9.9456882
  55.4059792  40.5022430  10.4978132  55.8958006  41.3158369   9.3192005
  47.3646927  59.6870089  15.6749296  47.2343969  59.5691109  16.6158628
  47.5232983  60.6252193  15.5708003  42.3342037  39.5810151  12.9545116
  42.3441124  39.5984507  11.9975221  42.1979237  40.4935646  13.2092929
  10.8349752  29.6641874  28.5473919  11.1713243  28.7747979  28.6573386
   9.9468768  29.6300411  28.9028430   8.8884413  17.6423430   5.3789419
   8.2930779  16.9882643   5.0129437   8.5788161  18.4746242   5.0216281
  32.0147800  23.2298279  26.9755840  32.4636650  22.6238084  27.5650501
  32.5830293  23.9995050  26.9452167   4.4334581 107.2115707   5.3848743
   4.6607468 107.3624516   4.4673741   3.8458821 106.4562035   5.3649741
  78.6030197  19.5744586  23.2755113  78.9744949  18.6940634  23.2194376
  77.7206135  19.4405103  23.6214066  32.0619512  59.4367695  39.1578889
  31.1547470  59.6938372  39.3226027  32.3278332  58.9740896  39.9525380
  19.0891778  58.0490732  11.8745279  19.3520057  57.4020433  12.5291312
  18.1573713  58.1924200  12.0401144  28.9997339  26.1303544  26.3342977
  28.0700207  25.9416366  26.4617777  29.3879604  25.2836561  26.1138082
 111.7088509  60.5714464  12.8115928 112.6053619  60.6127167  13.1444383
 111.4591408  59.6525717  12.9093099  16.8019509  71.6298151  59.9803114
  16.5752292  71.5375519  59.0549374  16.0524106  71.2619400  60.4483795
  38.2468152  72.4961090  59.6157122  38.8078260  71.9523239  59.0627241
  37.6704764  72.9490757  59.0001726  29.6204638  21.6708016  42.0309687
  30.1667452  22.4215102  41.7980671  29.0726614  21.9869399  42.7494431
  12.6457202  28.5716748  36.4072990  13.2746983  28.0033898  36.8518996
  13.1688344  29.3101883  36.0955548  55.2577734  15.3664756   9.9423671
  55.5743504  16.2288737   9.6735120  55.8478022  15.1043522  10.6490421
   8.9991611  68.0407286  16.6477263   9.3515182  68.2178307  15.7755375
   9.4230658  68.6865139  17.2129667  28.7279391  54.6652842  39.6828866
  28.3150840  54.2777443  40.4546356  29.6580625  54.4617128  39.7811747
  98.6074924  49.1065550  19.6794474  98.3852100  48.8716888  18.7785232
  98.6908817  48.2672977  20.1321340  20.4542327  40.6204462  34.2757034
  19.5849574  40.9500790  34.0478182  20.3546953  39.6684766  34.2844105
  39.2062116  64.6817207  27.9016852  39.3302083  65.0684834  27.0349264
  38.6530590  63.9163017  27.7455115  47.5532436  43.7698078  39.5914292
  47.0351171  44.3168592  40.1817751  47.3046589  42.8731060  39.8158503
  19.9644005  45.1723862  30.2050161  20.4208469  45.9326792  30.5653548
  20.4980493  44.4239330  30.4719853  54.2995214  42.1633768  18.9100277
  53.8068485  41.4257240  18.5503435  54.3676567  42.7829027  18.1835461
  76.5090418  44.4142580  22.6875496  76.6425467  45.0719976  22.0050669
  77.3899174  44.1028738  22.8956938  50.4015350   8.2513684  34.3808484
  50.0344038   8.9927447  34.8623109  49.6417046   7.8190070  33.9910412
  23.0447268  56.8840742  29.4949389  22.9122448  56.2457371  30.1957989
  23.2173276  56.3534737  28.7171841  47.1894312  20.9637523  13.6242366
  47.1309853  20.9852886  14.5794070  48.0877638  20.6857896  13.4454525
 104.1712761 102.9706287  42.3571968 103.5408688 102.2818279  42.1465445
 104.1697788 103.0123901  43.3134842  53.8013792  46.3715506  20.3321719
  53.9881802  47.2262383  19.9437761  54.6612120  45.9658861  20.4433060
  40.6200123  38.9630008  45.4567719  40.9715128  39.2803121  44.6249104
  41.3940573  38.7654400  45.9840822 103.3818340  95.2965355  52.8750324
 103.4699726  95.7469177  53.7150431 102.6657963  94.6758175  53.0100441
  19.0562010  49.4616318  23.4595156  18.1699181  49.2626810  23.1575990
  19.6275294  49.0816450  22.7921152  43.2169390  43.5178137  20.3820872
  42.4282646  42.9868841  20.4931474  43.8627291  42.9136896  20.0157189
  34.0608907  13.1355393  11.9542205  33.6714888  13.1029415  11.0804152
  33.3126974  13.2019985  12.5475359  60.1888990  83.5560036  48.5560465
  59.3413258  83.8264656  48.9091778  59.9746227  83.0980015  47.7433014
  48.8750267  55.1043463  27.4185205  48.5098219  55.4728174  28.2229376
  48.1121016  54.8031092  26.9251323 113.2799339  30.9536934  27.8829074
 112.3558807  31.1680532  28.0110407 113.2896423  30.3872108  27.1113920
  73.7887383  67.6336813  37.0406032  74.2860413  67.1894073  37.7272916
  73.4251976  66.9240952  36.5109277  46.7167091  33.0368114  28.5880661
  47.5904751  33.1938505  28.9459729  46.6200924  33.6912322  27.8962326
  47.4513006  43.2185936  59.5337582  48.0228615  43.5435629  58.8380957
  48.0452538  42.7949047  60.1533890  86.7624569  60.8520937  90.1855278
  85.8348083  60.6472921  90.3028107  87.0505333  61.1589861  91.0452175
  25.5362535  39.3006229  56.2735844  24.7111511  39.2742252  56.7580843
  26.1741185  39.6336365  56.9048262  27.2225022  52.8314209  13.4835625
  26.4715552  52.4304056  13.9211667  27.6111364  53.4004068  14.1479826
  80.7509518  74.0410757  39.1754913  80.0861263  74.6165705  39.5537090
  80.3626347  73.1671429  39.2165470  31.5892744  53.9859581  46.8597746
  31.5122437  53.5827684  47.7244949  31.4678216  53.2615137  46.2460470
  19.8144042  15.6549656  36.8279505  19.9034345  15.9348035  35.9169078
  20.0113940  16.4394534  37.3398137  51.6596556  42.7321625  20.8539820
  51.7273235  41.9038486  20.3790593  52.5372410  42.8780985  21.2072301
  46.0135746  37.8204274  40.5208063  46.7469358  37.9414558  41.1239338
  46.1684084  36.9629979  40.1244783  25.8593988  66.8131447  36.5885258
  26.5718079  66.4059639  37.0813823  25.9614348  67.7509785  36.7506695
  41.0399961  33.0806756  34.5133686  40.8234167  33.7194586  35.1925468
  41.1060047  33.5977411  33.7105513 108.3945370  42.2263288  19.5708704
 109.2570496  42.3859453  19.1876757 107.8275299  42.8829432  19.1664207
  28.6053038  43.0395079  58.9939404  28.0124426  42.3621416  58.6684895
  29.4449449  42.5922489  59.0997314  70.9883785  38.6961174  38.3685803
  70.2071619  38.9902925  38.8369751  70.8448887  38.9754558  37.4643612
  32.7382493  32.8732967  43.4753418  32.5886369  33.4393358  42.7180815
  33.2553625  32.1448946  43.1314611  27.8653121  41.5678692  40.9473562
  28.5423946  42.2392321  41.0314131  27.5377727  41.4451551  41.8383598
  20.7564449  33.7877512  54.3040276  21.7132425  33.7730193  54.2804718
  20.4988718  34.0393329  53.4171295  49.1826630  29.2831922   1.2426341
  49.0806770  29.1049767   2.1775514  48.6564064  30.0679636   1.0896002
  39.4468045  16.8381202  59.8012972  38.6638689  16.3540268  60.0637817
  39.9579740  16.2089753  59.2922640  46.4166594  22.7732277  11.7535460
  45.6509447  22.2146511  11.6197467  46.9246769  22.3252439  12.4299073
  52.3555088  11.0249221  56.0104847  52.2653627  11.3948965  55.1322889
  51.4561605  10.8645380  56.2962914  34.4709516  88.9099503  67.2886086
  33.7947178  88.2495403  67.4395895  35.2802610  88.4072590  67.1961308
  39.2378521  52.9413128  43.5194635  38.6976361  53.1736755  44.2747164
  38.8446975  53.4175968  42.7881575  47.9623222  31.6274619   1.5917666
  48.3557701  32.4999857   1.6031630  47.3778534  31.6183591   2.3497558
  45.2912283  12.4047506  50.1880836  44.6923018  12.2222257  50.9121037
  46.1327219  12.5763297  50.6107855  27.2778416  29.8649883  27.3861527
  27.7725530  29.7486830  26.5750027  27.5173378  30.7407665  27.6892805
   7.4692291  54.0842581  50.8049726   7.8221971  54.9726725  50.7563162
   7.9514891  53.5979795  50.1362514  38.8270855  56.8888903  60.3252220
  38.4282827  57.1626139  61.1512136  38.2579660  57.2587824  59.6503067
  51.8662691  39.7574759   8.2723385  51.8680191  40.5649900   8.7862915
  51.9916391  40.0482225   7.3690218  38.5152721  48.5030365  19.0721607
  38.7988377  48.8958549  19.8977005  37.6511717  48.1389427  19.2645097
  10.6381106  47.5542688  36.2505817  11.2520516  48.2230234  35.9471369
  10.8917809  47.3907471  37.1589565   9.2593074  68.2597256  42.7471828
   8.4123296  68.6173916  43.0135155   9.4605589  67.6006317  43.4115028
 105.4481125  56.7565393  54.6916103 105.7597351  57.6599169  54.7466564
 106.1286926  56.2415743  55.1250267  14.9933541  80.3729439  31.4533377
  15.2325392  80.3099823  30.5286431  15.2802491  81.2475777  31.7159200
  54.3019342  33.5320210   9.0861446  54.5503283  33.2760835   9.9744165
  55.0198841  34.0906143   8.7882298  63.4056425  12.7592599   8.6234736
  62.9218388  13.1576443   7.8999710  64.1076422  12.2658551   8.1992382
  14.2102528  54.3033981  66.0016251  14.0996027  55.1632500  65.5958557
  15.1584518  54.1821384  66.0511017  31.7320108  26.9297910  31.8591428
  31.9268465  25.9973073  31.9526744  30.8538580  26.9540405  31.4790249
  15.1957202  30.5822372  39.6333861  14.9620450  30.3234529  40.5248213
  14.3650496  30.8389258  39.2329741  40.7294369  22.0075679  16.9024003
  40.6276512  22.9569030  16.8343461  40.2880573  21.7773557  17.7199686
 109.1150570  10.8736491  74.2786455 109.2894936  11.0848939  73.3614922
 108.3357143  10.3185117  74.2525291  10.8271289  62.3982096  51.8771362
  10.0711536  61.9394732  52.2435999  11.5486181  62.1804285  52.4672651
   3.5302031  81.6943932  31.9457865   3.1312993  81.4528751  32.7817154
   2.8610146  82.2162437  31.5029645  42.4816370  85.4186535  38.3548951
  41.8669653  84.8395348  37.9042912  42.0078564  85.7117558  39.1332603
  31.1440182  54.0290594  31.4814329  30.5045009  54.0574884  30.7697845
  31.8214130  53.4283066  31.1708498  74.3591118  66.4226866  91.0805988
  73.6049461  66.0788918  91.5594196  75.0284910  66.5558910  91.7517376
  41.3831520   0.5855924  33.8056040  40.9362745   0.0546591  33.1463289
  41.5159082  -0.0100441  34.5430470  23.9037228  23.2690334  29.7491145
  22.9905677  23.2409072  29.4634819  23.9954114  22.5159431  30.3327918
   3.9713702  45.1714468  38.2753396   4.7596061  45.4109144  37.7879262
   3.9192984  44.2191648  38.1936312  34.2334771  50.9871387  -0.3485696
  34.2002010  50.1961517   0.1894515  33.9112496  51.6814613   0.2261616
  48.0923128  70.4801607  23.4123302  47.8676701  71.1836529  24.0213180
  48.7651682  69.9745083  23.8681984  39.8293924  41.3165283  35.0085282
  40.6633902  41.5348244  34.5925641  39.3672490  40.7896328  34.3565798
  44.1734457  16.0915589  29.6014452  43.5374975  16.5867472  30.1177692
  43.6740160  15.7696795  28.8509846   0.3952429  61.3229275  20.9509683
  -0.1099649  61.3712645  20.1393890  -0.1235449  61.8169451  21.5858221
  17.8336990  66.9530058  30.4576778  16.9117737  67.0147133  30.2077222
  18.0015934  67.7544022  30.9534669  34.5857096  21.0668612  11.0551143
  33.7117743  20.6897569  11.1564136  35.0302434  20.8658314  11.8786490
   3.0610788  52.1373224  36.2350273   3.4261140  51.8497705  37.0718646
   2.1136564  52.1281338  36.3711834  52.1756363  52.0065689  35.8716416
  53.0311346  51.7339516  35.5399227  52.3288298  52.2039270  36.7956614
  67.3122692  96.0072422  79.3460083  67.5960493  95.7136536  80.2117443
  66.3957500  95.7369041  79.2899418  19.6539187  49.3675518  48.2667112
  18.9015830  48.8649750  48.5791874  19.7452343  49.1156769  47.3477697
  40.3066874  13.5430408  18.6398971  40.5971146  14.4546270  18.6697781
  40.2423000  13.3426654  17.7061224  19.8277128  11.6946113  43.3414173
  20.4345369  11.4059138  44.0230656  19.7894228  10.9605587  42.7282810
  27.3129439  36.2844682  37.9376531  26.7077279  35.8483338  38.5374284
  26.7545366  36.6216993  37.2371578  51.4866924  26.3673306  41.4101028
  52.3302412  26.0013294  41.1442089  50.8623314  25.6550598  41.2719917
  36.2256885  42.1460581  10.9623551  35.3195524  41.9555664  11.2049687
  36.1545610  42.7869368  10.2549314  64.0454769  86.4912224  86.2157536
  64.5746231  85.7682323  86.5526772  64.3922234  86.6532421  85.3383923
  32.3161602  75.0048494  38.4878778  31.5574503  75.5883837  38.4966516
  31.9777250  74.1770697  38.1466007   7.9129595  50.1236105   3.0028901
   8.5851765  50.7972574   2.9001492   7.7914602  50.0488806   3.9494020
  26.8578720  53.4711504  33.7624669  26.8037295  53.2737875  32.8273988
  27.7892923  53.3954048  33.9697051  44.9721050  30.9228325  45.7147837
  45.2104187  30.2120638  45.1196003  44.2235374  31.3462734  45.2945757
  42.3499012  65.2658415  32.0552969  43.2184649  64.9709177  31.7816997
  41.7445898  64.6701145  31.6137815  36.8499684  35.6957412  25.0824356
  37.2401571  36.4432931  25.5353713  36.7243171  35.9993601  24.1834021
  42.5751448  72.6989651  14.5394814  43.2137632  71.9930267  14.6397424
  42.0549726  72.6671886  15.3423786  46.7707539  48.1443405  15.7343519
  45.9176779  48.2151508  16.1627007  46.5765095  48.2185841  14.8000133
  67.1729088  45.2702665  37.6545048  67.6172495  45.9402990  38.1739759
  67.6553297  45.2489328  36.8280387  71.5421677  72.9185057  18.0133641
  71.6541195  73.8325739  18.2744706  71.9892406  72.8539991  17.1694493
  35.7998347  42.1038151  26.1282706  35.6891060  42.4656725  25.2490497
  35.2814507  42.6789808  26.6910267  20.5166626  41.8276644  14.0447378
  20.8388543  42.5597954  13.5189974  19.6001172  41.7319679  13.7858605
  60.0856066  43.5037327  34.0989089  60.1089191  43.9142799  34.9632812
  60.9500885  43.1048870  33.9998007  33.2499671  51.3020992  47.7811337
  33.4394956  51.7751980  46.9708920  33.9558029  50.6596804  47.8540850
  19.0128481  56.5368128  15.3190804  19.6334207  56.3523483  16.0241294
  18.8899899  55.6943369  14.8816240  43.7981319  50.3657389  14.7378218
  44.4407320  50.9733629  15.1039934  42.9672670  50.6284237  15.1339161
  51.1414051  39.9090886  35.6343412  51.7671156  40.6333971  35.6244230
  50.7563734  39.9371767  36.5102363  24.9026036  63.8130617  29.0511513
  25.0679564  62.9484606  29.4271278  24.7920561  64.3867826  29.8093414
  37.1755672  24.2508030  19.0631759  37.2835207  25.2018952  19.0631914
  36.3854337  24.0994453  18.5445142  69.8587418  92.7005482  79.1828156
  69.0010166  92.8908062  79.5627308  70.0285196  91.7886925  79.4193172
  40.2240705  56.9830990  39.6839046  39.8760772  57.2261286  38.8259602
  41.1259079  57.3038101  39.6761751  36.9698358  29.7750568  35.5988455
  36.1275864  29.9387932  35.1745343  37.3877859  29.1093206  35.0526381
  13.8673472  54.5242691  38.2278109  14.0820158  54.8248148  39.1108847
  13.4788501  55.2887154  37.8024602  32.8423285  70.5650663  53.1434917
  32.9706025  70.8710766  52.2456408  31.9029760  70.3918934  53.2056093
  16.9962692  64.3792486  33.5821152  17.7322686  64.9891758  33.5318184
  16.3605309  64.7185612  32.9520869  45.9069824  42.7434015  27.6743531
  45.3777933  42.9819012  26.9132257  46.4561701  42.0219040  27.3676538
  76.3414669  71.4201212  34.2952943  76.7315197  70.9732485  35.0465584
  75.4944515  70.9909058  34.1745830  28.9228606  23.8295555  29.2578340
  28.2041073  23.8868904  28.6282778  29.7033572  24.0544558  28.7513971
  48.4284163  49.4473267   5.1917058  48.4570789  49.0245581   4.3334070
  47.9416323  48.8355017   5.7439244  33.1597018  45.0657082  40.4548550
  32.9302216  45.8718586  39.9925900  32.3773170  44.5186663  40.3852034
  22.4313688  40.7316589  28.4815383  23.3169770  40.8718252  28.8166285
  22.5406933  40.6745386  27.5323200  23.0633712  40.9233904  39.7492909
  22.8646541  40.8182287  40.6797123  23.0754709  41.8706942  39.6125364
  47.7919102  41.4694118  11.2393391  48.6117935  40.9888220  11.3535774
  47.5921249  41.8126392  12.1102655  39.1314745  86.6747952  16.3199151
  38.8844132  87.5257397  15.9578395  38.3224440  86.1634922  16.3034892
  45.2424717  57.7963018  38.2478952  45.4139090  57.2498035  39.0148234
  46.1108255  58.0546379  37.9389358  84.6265030  69.2955160  34.6946144
  84.9348259  70.1889181  34.8462629  84.5025730  69.2425299  33.7469506
 113.7926389  31.1646318  62.0817804 113.2402076  31.9165778  62.2953892
 114.1035964  31.3404608  61.1937380  40.2249765  73.1445408   5.4978430
  40.7732582  73.4885979   6.2029940  39.3306351  73.3580351   5.7639408
  29.5349908  53.7456322  33.7436318  29.8283052  53.9273596  32.8507853
  30.2654982  53.2745886  34.1445160  74.9506950  32.9979801  19.8641622
  75.7456923  32.6857305  19.4320607  75.1315594  32.8991604  20.7989097
  78.9714575  48.4291744  24.0712833  78.0396080  48.6060381  24.2001557
  79.1754770  48.8251638  23.2240510  36.3102412  64.1187382  47.0101881
  36.1389828  63.2857227  47.4494982  36.2537193  64.7728920  47.7066898
  28.0535030  18.4395432  25.3779030  27.5847626  18.0760026  26.1291385
  27.7663517  19.3516457  25.3349423  71.6958094  54.1480398  13.6073244
  70.9028673  54.2391682  14.1356897  71.7191982  54.9410391  13.0717504
  49.3400860  74.0557814   3.4341305  49.3508148  74.3141508   2.5125217
  48.5392809  73.5400820   3.5289961  99.2078304  79.5920229  38.0778503
  98.7161350  79.9073172  37.3195291  99.9250221  79.0810204  37.7026844
  28.8428855  39.2267156  23.8399053  29.6990180  39.5771098  23.5939527
  28.2740593  39.4438100  23.1012988  28.5722685  48.7522888  15.8276236
  28.9166713  48.4675407  16.6741085  28.6062956  49.7081709  15.8644891
  17.7819860 103.9982891  12.1907628  17.7799976 104.7811127  11.6399264
  18.6241043 103.5805607  12.0102787  37.6002598  46.5247250  44.6311283
  37.9994583  46.1757946  43.8341856  37.4386406  45.7540178  45.1752949
  63.3765936  45.8783436   1.5779720  64.2355824  46.2891579   1.4799857
  62.8151703  46.5752125   1.9176859   3.7031004  28.2273674  92.7810383
   2.9226318  27.8444886  93.1816769   4.3311816  27.5060487  92.7430058
   0.3075461  87.7795410  91.5421677   1.0063735  88.4327126  91.5773773
  -0.3244361  88.1382942  90.9191608  29.1082406  96.2247849  19.5602119
  29.8184729  96.6846943  19.1126823  28.8892245  96.7873478  20.3030372
  61.4618635  62.8637266  17.7026165  62.0196676  63.3771801  17.1182775
  61.1785269  63.4866714  18.3718622   9.4460940  83.5205746  36.3831353
  10.1725328  84.0483284  36.0514736   8.6656499  83.9171410  35.9959960
  19.8959672  30.6407428   3.5714942  19.6974480  31.3396573   2.9483247
  19.9226999  31.0787868   4.4221610  37.7980471  31.0344410  10.8121717
  37.3648167  31.0879922   9.9603069  38.4157228  30.3088379  10.7215571
  72.6144600  21.3321352  34.2549157  72.2099924  21.7302918  33.4841323
  72.4302769  20.3970432  34.1659737  27.8205037  66.0290051  45.0781631
  28.5230756  65.3800583  45.1167536  28.2015634  66.7664957  44.6015835
  13.3679628  81.4203548  12.9460776  12.9128146  81.8068218  13.6942184
  12.6755667  81.0016727  12.4346793  54.7543335  54.0397358  16.3574696
  54.9544477  54.9151373  16.6889179  54.2175436  53.6411905  17.0424891
  44.7490072  60.1283741  34.0568590  44.6903753  60.7638550  33.3434439
  45.6710100  60.1410389  34.3137264  47.2139645  34.3385053  43.0106783
  46.3481569  34.4128990  42.6093292  47.6654387  33.6777616  42.4854946
  46.4430761  18.5949349  65.2082920  46.6116762  17.7075756  65.5251503
  45.9490442  19.0115654  65.9143972  41.2519407  74.2451572   7.9269069
  40.6139374  74.8024464   8.3725709  41.2114239  73.4119654   8.3963537
  37.6954079  60.7888079  62.0073986  38.3677530  61.2359524  62.5214434
  38.0725479  60.7170391  61.1305571  68.9822006  66.2007284  23.7274647
  69.5429564  66.1484146  24.5014477  68.7906790  67.1338129  23.6330867
  31.9467044  51.1344767  31.9729781  32.8941751  51.2585545  32.0289898
  31.7788625  50.3397751  32.4794459  44.3529606  52.6548290  25.9358716
  43.5339260  52.3035526  25.5865622  44.5236158  52.1311188  26.7187095
  63.8014603  46.3435125  24.6914744  63.8308811  45.4503202  24.3485832
  64.4871283  46.3665199  25.3589797  38.4184313  21.8655634  32.4544311
  37.6309156  21.3405442  32.3115706  38.1001186  22.7670979  32.5007248
  22.3256993  35.4926753  35.1694608  21.6160917  36.0937119  34.9426484
  21.8893051  34.7601581  35.6044436  40.3014088  82.1236706  32.9754591
  40.7709742  82.9228973  33.2141304  39.5228839  82.4325848  32.5121045
  13.4563172  48.3660698  59.4940424  14.3470645  48.0254936  59.5765734
  13.0332911  47.7806139  58.8659286  41.9956160  52.0718813  52.3268509
  41.7987633  52.9923344  52.5007677  42.9054928  51.9649935  52.6042128
  23.7559342  36.9114661   3.0833241  24.0895844  36.0212803   3.1950301
  23.1416512  37.0296860   3.8078332  25.4965496  48.0451202   7.7245611
  26.3661408  47.6896954   7.9081792  24.9107051  47.5547218   8.3012152
  40.8248520  31.5619349  30.5551386  40.1880217  31.3363314  29.8770714
  41.2948084  30.7452369  30.7236004  24.7693634  35.2603197  20.1523304
  24.4789934  35.3147793  21.0627985  24.2326593  34.5655560  19.7709131
  88.2976437  60.5458689  33.0118084  88.6243725  60.6520176  33.9052391
  88.9099979  61.0456133  32.4718904  44.4179630  74.0150023  31.8628669
  44.1178989  74.9180746  31.7596221  43.6132479  73.4980392  31.9003558
  10.7914114  53.0504942  52.2668648  10.3560722  52.2651196  52.5983763
  10.2733171  53.3076572  51.5041876  35.2164483  35.8899999  40.1314116
  35.6969690  36.4835024  40.7085514  34.3494582  36.2869573  40.0478125
  37.6670337  37.8304815  55.5357265  37.4355888  38.0472231  56.4388800
  37.1374559  38.4243464  55.0036526  17.1399355  30.8310318  -0.0256388
  17.6471651  30.4496479   0.6909469  16.2504315  30.5046558   0.1103502
  44.4946384  32.9911160   1.9033396  44.4181871  32.0746350   1.6379176
  44.5246792  33.4773850   1.0794020  26.1571169  51.8320990  50.3356504
  26.8882227  51.3760662  49.9188185  25.3791118  51.4901400  49.8951912
  39.2525649  89.3039513  45.4699707  39.7441649  89.0240002  46.2421036
  38.4908915  88.7246418  45.4479504  28.2823229  87.8477287  22.8991914
  28.3363771  87.2810555  23.6687326  27.6725578  88.5401726  23.1540060
  90.8102036  35.0045037  54.5619822  91.6321087  35.2291131  54.9981594
  90.9027290  35.3609300  53.6784506  95.4360867  96.8026066  92.0500278
  95.1276779  95.8969402  92.0796394  96.3000298  96.7481804  91.6415405
  99.1185760  75.3824711  92.5540829  98.3953190  75.1784086  91.9612122
  99.9040222  75.1258087  92.0709324  51.8405533  62.9359579  16.6955149
  51.3144016  62.1645880  16.9061971  51.8617773  62.9573870  15.7387912
  50.8297491  52.1882534  22.2551274  50.2619028  51.5561533  22.6958537
  50.2285290  52.8412390  21.8968368 101.8621254  31.3934445  87.3687840
 102.5231743  30.7475019  87.1197891 101.0454178  30.8960629  87.4115849
  60.4581213  46.6836929   3.0782315  60.4331541  46.3735056   2.1730286
  60.7411861  47.5956202   3.0112010  45.9629583  72.5304604  38.5342860
  45.4909658  73.0809736  37.9094744  46.8258142  72.9381180  38.6085820
  15.9079599   7.2240090  92.5693226  15.0007367   7.0060259  92.3556423
  15.8728576   7.5351334  93.4738731  27.4998927  62.0786905  26.8518090
  26.8923044  62.7861214  26.6359043  26.9883251  61.4819860  27.3981380
  38.0729222  63.2835436  30.4009533  37.2798133  63.6288166  30.8108234
  38.2217622  63.8553715  29.6478987  21.8526006  87.4434948  19.1078508
  21.5725946  86.5355301  19.2237508  22.5444984  87.5656033  19.7579265
  14.0865397  76.4185047   7.9680192  14.1236305  77.3181868   8.2927054
  13.3732271  76.0146904   8.4623420  12.5471961  45.1705694  60.1753616
  11.8713832  44.5521212  60.4529047  12.8507531  44.8316288  59.3332195
  40.0587749  83.4998989  43.3369207  40.5788326  82.7487278  43.0514145
  39.6151185  83.7995338  42.5434351  33.4913588  46.9767332  67.1481371
  33.0472207  46.3589096  66.5673923  32.8579760  47.6829243  67.2760296
  31.9845772  39.6200728  46.3943624  32.2174478  38.7313557  46.6630363
  31.0292959  39.6096849  46.3346767  53.0457401  56.4405060  25.9724641
  53.5281658  56.9617319  26.6141987  52.9031038  57.0372391  25.2377582
  44.1192102  62.0405960  18.4861767  43.7677240  62.9072094  18.2820451
  44.8073149  61.9018459  17.8354120  36.2408423  48.7708330  45.4740858
  36.5717435  47.9840136  45.0408983  37.0104337  49.3313169  45.5731583
  33.8135672  23.3337045  18.0895340  33.0200362  23.7760234  17.7880430
  34.1438293  23.8891864  18.7956500  35.2271700  72.0802450   0.3794871
  36.0050011  71.9814730  -0.1695612  35.5695438  72.1397781   1.2713766
  72.4693727  98.9193058  83.3137035  73.4020138  98.8949299  83.5277653
  72.1509218  99.7244453  83.7218285  54.2690420  49.8427057  28.9749408
  54.8999405  50.4895496  28.6590409  53.5966921  49.8116684  28.2943439
   1.0679208  74.1074467  20.4903984   0.7722319  73.3041716  20.0619698
   0.8533457  74.8032331  19.8690534  51.0165977  55.6288290  19.2351818
  51.5110970  56.4317656  19.0708828  50.8981848  55.6105518  20.1848531
 113.0336413   0.0060371  84.3494320 112.5740841   0.8195022  84.1413116
 113.7944203   0.2844375  84.8592663  43.4829473  73.4082794  20.9397173
  43.5690212  74.0359879  21.6572165  42.6848078  73.6743307  20.4831791
  13.0191815  55.2549791  42.5157404  13.1546533  54.3334484  42.2951651
  13.2045901  55.3065825  43.4533930  38.5041571  45.5173445  17.4287343
  38.1659484  45.4240417  16.5381503  37.8578448  46.0651207  17.8742158
  82.0678902  54.4009209  21.7390466  82.4116039  53.9773607  22.5256133
  81.3526154  54.9519348  22.0568514  50.9178162  62.0339680  24.6382236
  50.6055450  61.4933252  25.3637719  51.5966988  62.5862455  25.0259590
  25.6522465  43.3995867  30.7835817  25.8011937  42.5824404  31.2593150
  25.6774926  43.1473732  29.8605537  45.4285908  63.6205387  21.0129142
  45.6594992  64.3744898  20.4702616  46.0114861  63.6825752  21.7696261
  51.0299873  33.4080672   6.2523162  51.3725233  34.2923903   6.1224216
  50.2600431  33.5286832   6.8080723  54.7214460  45.1105833   7.5056744
  53.7684917  45.1875114   7.4588370  54.9783993  45.7295132   8.1891477
  13.3004415  56.8862534  18.2853675  13.7542379  57.7095509  18.4656024
  12.6926148  57.0979214  17.5768661  46.8736362  56.4317799  35.5658889
  47.0834637  57.0621729  36.2549496  45.9871912  56.6647959  35.2899289
  28.1324005  78.9678144  58.3819246  27.3968387  78.5431337  58.8233185
  28.2329869  78.4823847  57.5630999  59.2869806  61.0457754  17.3848605
  58.5103607  61.0726023  16.8259585  59.8449945  61.7493486  17.0534396
   8.8588810  56.6785622   4.9389371   9.1247469  56.2554598   4.1225249
   9.3153507  57.5198889   4.9323869  92.4703121  65.3418112  19.4759226
  93.0634403  64.6642113  19.8003983  91.7878914  64.8593473  19.0092707
  41.7115927  32.5888610  48.2613611  41.2273455  33.3396316  48.6049891
  42.5119400  32.9666185  47.8967047  35.9921265  48.3280945  49.3418169
  36.6886616  48.9761114  49.4473982  35.3706837  48.5282278  50.0418091
  59.4545984  39.2450023  32.9696536  59.3186855  39.5222020  33.8756990
  59.2671490  38.3063555  32.9756737  43.5896540  76.5866041  31.9138193
  44.3671179  76.9206429  32.3612523  42.9073715  77.2295904  32.1069312
  43.0714607  76.5546513   2.3387787  42.7758741  77.2247839   2.9550400
  42.6967764  75.7397699   2.6731679  40.2784824  61.0706615  28.7289500
  39.3946385  60.9365559  29.0710998  40.8360195  61.0901642  29.5067692
  18.0543566  78.5624218  44.5562220  17.3885047  79.1897583  44.8378658
  18.2921338  78.0909157  45.3545809  30.3536582  57.1724939  40.5908108
  30.6519103  56.2721014  40.7195330  30.6701159  57.4072266  39.7184658
  24.1167402  74.4886589  32.1668243  24.2201591  74.5990229  31.2216496
  24.9301314  74.0707207  32.4495840  40.2843761  47.4712753  17.0297825
  39.7940350  46.8771029  16.4616609  39.9062967  47.3380280  17.8989959
  63.3205891  51.9483948  18.6687434  64.1822958  51.5499115  18.5466492
  62.9316711  51.4603329  19.3945312  26.8174577  21.4644194  30.4668832
  26.7870331  21.9048405  29.6175694  27.5588489  21.8670535  30.9190512
  43.7434912  52.8376007  32.2753978  43.6224174  52.7783489  33.2230592
  44.6913242  52.7877760  32.1514559  22.4702764  60.5170965  50.4679394
  23.2890987  60.4379559  50.9573221  22.6427650  60.0711012  49.6387386
  65.8746672  52.7991533  33.4165311  65.5742788  51.8903494  33.4080672
  66.7188168  52.7682114  33.8667345  27.4445057  70.1476288  15.4569817
  27.4648261  70.9109831  14.8798239  27.4333525  70.5156374  16.3405418
  32.5923061  45.4154634  32.1639776  32.9423165  45.1681042  31.3080931
  33.3569050  45.4325342  32.7395892  95.6802082  52.9746914  55.5855083
  95.3591442  53.2853603  56.4320517  96.6102695  52.8013420  55.7310486
  25.7792640  73.1194210  63.1526995  25.6471872  73.8978338  62.6115322
  25.3759027  72.4093294  62.6533985  64.0892601  37.2170520  10.4854834
  63.9225006  37.8529501  11.1812246  64.2876434  36.4027214  10.9478021
  39.5912886  57.8475571  33.9812040  38.7080669  57.7577257  33.6233163
  39.7782135  58.7846613  33.9252734  22.1986175  32.1204257   5.6401312
  22.7914166  32.2392535   6.3822234  22.7779222  32.0017600   4.8874325
  31.8598437  60.4224586  15.5831563  31.7913485  59.6689272  14.9968708
  31.3170028  61.0955000  15.1725817  40.8396244  33.7829161   6.1184096
  41.2473726  32.9805207   5.7926267  41.0464096  33.7942863   7.0529377
  62.0652533  24.5046759  28.1614399  61.8634748  23.8122296  28.7907505
  62.9626417  24.7640920  28.3703065  19.9945223  86.6144085  82.4796486
  19.8569095  87.5121880  82.7818012  19.7039318  86.0685921  83.2103157
  29.9588060  68.9517260  10.4156983  29.0895128  68.7768269  10.7762146
  30.2886009  69.6872950  10.9318459  57.4859238  93.0334377  48.4391022
  57.0015240  92.9192829  49.2567539  57.8019714  93.9363575  48.4719992
  34.4164252  48.4055328  47.2492743  34.9426246  48.2784796  48.0387068
  35.0587559  48.4998703  46.5458918  58.0241013  47.6670504   6.8111098
  58.9375591  47.6110649   6.5305918  58.0704021  47.7416849   7.7642715
  77.4219131  55.3953171  27.2019029  76.8435335  56.1058378  26.9246411
  77.8815746  55.1353025  26.4035702  72.1851683  32.9694533  19.3394327
  73.0733395  33.0502987  19.6870649  72.3072863  32.8301477  18.4003305
  23.7791872  83.9673519  31.3957405  24.1749549  84.7506332  31.7779255
  24.3306875  83.7647057  30.6400847  51.7397308  48.9003563  20.5794597
  51.5406370  48.7450075  21.5027475  52.5848293  49.3497372  20.5889916
  41.7839718  51.1771345  19.6038508  41.2069273  51.3325071  18.8561141
  41.3087368  51.5381336  20.3522229  43.5913324  68.2617998  18.1294787
  44.0119743  68.9053249  18.6997139  42.6536608  68.4122896  18.2492840
  47.1100140  48.3799171  29.9087238  47.5793934  47.6938391  30.3832936
  47.0674419  49.1111755  30.5249071  32.7891374  58.7331820  59.5972872
  33.5454869  58.7571001  60.1834583  32.1274805  58.2379055  60.0801325
  52.3817635  44.3760538  11.3931322  52.1662521  45.2538681  11.0781360
  52.2648573  44.4266081  12.3418200  58.2874918 103.9964867  91.1381626
  57.9480171 104.7791100  90.7040119  59.1499329 104.2570114  91.4615059
  57.9981804  61.8274736  22.9007816  58.0843019  62.6663589  22.4479222
  57.7381229  62.0618105  23.7916732  60.7573986  63.1645536  23.7212563
  60.7872105  62.6394844  22.9214764  60.2039099  62.6607943  24.3180037
  41.9329596  71.8368053  56.6520786  42.5782824  71.3167095  56.1732388
  41.7091703  72.5502062  56.0544062  49.0658855  97.0780563  16.1584699
  49.6137857  96.9452953  15.3848970  49.1676140  98.0065918  16.3675368
  72.4832296  64.8482466  92.5987434  71.9854450  65.1275396  93.3671474
  72.1630287  63.9653397  92.4138641  10.1680875  38.1057096  87.9209042
  10.1999366  37.1764374  88.1482124  10.8909988  38.2266045  87.3052597
  62.8634214  99.2644119  44.1424465  63.3665562 100.0343132  44.4076586
  63.4238243  98.5222912  44.3692255  34.7925210  14.7265708  78.9359093
  34.6726203  15.3148115  78.1903744  35.1378727  13.9206195  78.5519743
  92.2110081  15.9541214  79.6197844  91.9509315  15.0478303  79.7848034
  92.7864933  16.1752641  80.3520012  10.1729274  22.0180845  84.2347813
  10.9022439  22.1245003  84.8455238   9.4942057  21.5780354  84.7465706
  44.6967554  57.8325796  19.8661458  44.1951752  58.6466837  19.9094379
  44.8974323  57.6260662  20.7790065  87.0059681   7.0112801  82.2032261
  86.9608307   6.1641693  81.7598343  86.8818760   6.8037629  83.1293869
  19.3856335 103.0643463  21.3359404  18.8191104 102.3246574  21.5553641
  18.7864244 103.7375927  21.0135770  22.0889521  75.2763700   0.1629854
  22.7218938  75.7491732  -0.3774527  22.3975086  75.4038334   1.0600798
  23.6812592  26.1701703  90.4527473  23.1141591  26.8140721  90.8770370
  23.0887246  25.6496835  89.9103260  99.2442036  29.7985530  86.9785500
  99.2956352  29.9727464  87.9183578  99.0849209  30.6561542  86.5843678
  79.1583109  -0.0290148  12.8434241  78.9986992   0.8936895  12.6449978
  79.6007919  -0.0184235  13.6921465  89.7720718  51.0658455  91.1886883
  90.1789761  51.2392616  90.3398132  90.3035641  51.5583324  91.8141460
  97.3769855  22.1939540  82.0081997  97.1831226  22.8699064  82.6576138
  98.2890511  22.3510647  81.7639065  63.8441801  98.3611774   5.2670497
  64.3149996  98.2308006   4.4439065  63.2535505  99.0937328   5.0917131
  31.4102840  53.9610481   6.7201394  31.0122228  54.7489834   7.0901847
  32.2931504  53.9426327   7.0895177  25.4802752  70.5150032   3.0355436
  24.9025893  69.8310709   2.6967913  26.0387135  70.0646544   3.6692348
  54.8311758  72.0734787  26.5831971  54.2202139  71.5217686  26.0947561
  54.6532726  71.8725872  27.5020146  98.2233429  96.2421513  26.1768961
  98.4264946  95.4185963  25.7333803  98.4616661  96.9199371  25.5444074
  68.4042549  68.0052662  41.9413280  68.3028078  67.5110388  41.1278915
  68.6737871  67.3517036  42.5866508  48.2485962  45.7084751  30.8481717
  47.8296089  45.2144527  30.1434588  49.1043806  45.9510851  30.4946113
  30.0508857  80.3425694  25.5204988  29.7064781  80.2066803  26.4031935
  29.5151687  79.7766733  24.9646235  17.9776275  48.2669067  31.5602922
  18.8865507  48.0164099  31.3949347  17.6248884  48.4735632  30.6947875
  70.0487852  39.7379804   3.3346546  69.6807051  40.6098175   3.1909651
  70.3758621  39.4714975   2.4754453  34.8219919  76.7564964  32.6323271
  34.7628021  77.1974182  33.4798646  35.7557058  76.7665100  32.4218249
  53.2040071  77.0400333   5.2059484  52.4233818  76.4975023   5.0940806
  53.6747169  76.6351175   5.9344459  29.9027324  55.1155329  18.2819736
  30.0741553  55.7580566  17.5934887  29.0208101  55.3241491  18.5900688
  48.2316923  62.3359251  15.6154501  48.0528259  63.2000637  15.9862590
  48.1493521  62.4593544  14.6698201  85.2152443  84.2487431   8.4568149
  85.1420212  83.4954166   7.8708369  85.2262688  85.0066757   7.8723007
  37.6722789  79.0090036  36.2751603  37.8137136  79.5992756  35.5350208
  38.1430721  78.2101154  36.0377550  46.8113375  91.0712528  13.7283492
  47.0972109  91.9417953  13.4514606  46.5640736  91.1811256  14.6465087
  20.0913668  58.4594059  35.4352474  20.5733585  58.2362747  36.2315702
  20.7706523  58.6012745  34.7759461  58.0544949  72.3464346  20.5933595
  57.1471691  72.3914433  20.8949637  57.9940081  72.0006275  19.7028589
 107.6013565  89.0764904  56.0334826 108.1875610  88.5733223  55.4683113
 106.7566872  89.0531540  55.5837965  46.8022871  45.3260899  34.9751067
  47.1630287  44.9331141  35.7698822  45.9783745  45.7234430  35.2570844
  22.5561261  59.7205257   9.2276710  22.0747972  60.3995848   9.7003549
  21.9891644  58.9505482   9.2714745  60.0772524   0.6152949  20.0502348
  60.7359934   0.5603487  19.3579376  60.5518198   0.9628376  20.8053732
  50.6662464  17.7683997  21.5384269  51.3547945  17.2056806  21.1841989
  49.8615456  17.2626185  21.4249349  49.2077684  68.0853558   6.3750368
  49.4675064  68.2496691   5.4685217  48.2738638  67.8818989   6.3234758
  32.4681449  43.9237070  45.5428171  33.2385802  44.2985678  45.9695911
  32.0594501  44.6635532  45.0935650  90.7672596   2.3080091  18.9803350
  89.8832798   2.0784706  19.2668796  91.1430645   1.4814149  18.6774313
  19.9505806  80.7941532  35.2940464  19.0727437  81.0384655  35.0008845
  20.2553177  80.1655197  34.6396852  84.2214775  54.6198368  15.2556038
  84.5631886  55.3747892  14.7765326  84.9493217  53.9984274  15.2740467
  81.8447495  76.3819647   8.4834564  82.2779274  76.3098335   9.3339765
  82.5617218  76.3887024   7.8493130  88.8813400   0.7395601  15.0126541
  89.0489006   1.2591447  15.7989037  89.7482491   0.5892120  14.6356773
  60.1301622  63.8733292  26.7208600  60.6433058  64.4109535  26.1176395
  59.8000574  64.4924879  27.3719406  33.2162547  26.0618186  35.9505558
  33.1662083  25.3745914  36.6149688  33.2826948  25.5886865  35.1211214
  34.5714092  87.1417522  18.6179578  33.6308193  86.9646168  18.6300337
  34.6407747  88.0797863  18.7954426  56.9719744  80.8728504  39.9654627
  56.9877052  81.7574692  39.6001625  57.0535469  81.0024261  40.9103394
  39.5103383  69.4526768  42.8125429  40.1454878  70.1611710  42.9167175
  39.8250937  68.7612867  43.3948994  48.9215946 106.8442631   8.7631416
  48.7525702 105.9537411   8.4555101  48.6072588 106.8490505   9.6672446
  35.4581928  97.1600914  20.4207063  35.3421926  97.4999237  19.5334148
  34.5732832  96.9365978  20.7091808  47.8897667  93.3132744  18.8710260
  47.3226976  93.7672138  19.4944048  48.5196257  93.9779377  18.5922182
  72.3707008  55.5860853  20.0878072  72.0241737  56.1442375  20.7839561
  73.2830477  55.4342365  20.3343749  53.5835505  87.3466301  16.9549549
  53.8222075  86.6303062  17.5433040  52.7160931  87.1087837  16.6275740
  29.7264385  58.2318258  27.5523758  29.0155339  58.2400179  26.9114542
  30.2738166  58.9795303  27.3124886  51.2837029  91.8108845  34.1638446
  50.4415226  92.2643089  34.1267395  51.5533400  91.8810272  35.0796008
  34.2225885  39.8777032  21.7817020  34.4256926  38.9459920  21.6986847
  35.0499272  40.3208733  21.5937042  31.6736031  95.2164173  16.2352395
  32.3701668  94.7453785  15.7779121  31.9410801  96.1347389  16.1980867
  47.9003286  54.8871803  17.7148449  48.7232018  54.8816824  17.2258866
  47.5487661  55.7675362  17.5821686  15.8026338  67.6382113  33.6513972
  16.6373992  67.1817684  33.5462308  16.0471702  68.5439539  33.8413143
  36.4416194  49.6575689  32.5981307  36.1567855  49.5058727  31.6969705
  35.6878448  50.0682878  33.0216479  43.6834526  81.4767361  18.0665827
  43.5179806  82.4088573  18.2080102  42.9737186  81.1921501  17.4908090
  39.3846846  56.0256481  17.6253724  38.9351535  55.7188129  18.4127784
  39.5105386  56.9632292  17.7714169  22.9152751  75.6962204   2.7005926
  23.2171321  76.4245749   3.2433763  23.4917855  74.9686193   2.9339626
  59.7344255  61.2941265  25.9756374  59.8709154  62.1702051  26.3363171
  60.0543785  60.7022762  26.6565061  50.6728220  66.1108732  17.9239249
  50.3079987  66.5477657  18.6935091  50.6917715  65.1837730  18.1613231
  43.5268021  72.0458078  36.2489343  42.8212929  71.4048958  36.1610866
  44.3210125  71.5596294  36.0273719  58.3955956  87.9408932   6.3615090
  58.6353827  87.9119110   5.4352832  57.4755859  88.2051182   6.3625866
  43.3796930  76.6411161  29.3069243  43.4661865  76.6580534  30.2600598
  42.8268862  75.8799601  29.1300797  68.4663296  53.7416124  25.7441974
  67.9625654  54.5511961  25.6603289  67.9739237  53.0991077  25.2333641
  61.4310169  55.9840870  37.5013137  60.6193447  56.4314127  37.2619009
  61.2462997  55.0567436  37.3524857 110.3982162  67.2998476  58.3855343
 110.2965069  67.8673697  57.6214600 110.9895802  67.7810526  58.9642906
  30.3645897  70.9775639  43.8919878  30.4006457  70.6632662  44.7953987
  29.8545551  70.3138638  43.4276676  14.2123735  19.5258451  69.9340248
  13.4078062  20.0245595  69.7919369  14.8364329  19.8948658  69.3090391
  81.8657494  13.5617709  23.6879969  81.1173534  13.2101583  24.1701961
  82.5484753  13.6689055  24.3502903   9.2507970  94.8881435  11.9772816
   9.8876762  94.3040848  11.5655851   8.9298540  94.3974018  12.7338552
  86.1524773  15.8828557  37.3260188  86.1589050  15.7675827  38.2762289
  85.9522438  16.8101645  37.1985960  63.0073786  78.8318205  28.0142045
  62.7182007  78.2438040  27.3164654  63.9544296  78.7007904  28.0607009
  45.4435015 107.3440170  18.0306959  44.6964741 106.8929958  18.4240925
  45.3100443 107.2506523  17.0874548  77.6359653 106.9643211  64.0364647
  77.3769760 106.1530685  63.5994101  76.8417263 107.4985600  64.0400314
  40.4590893  60.4947758  33.8191199  40.3681993  61.3851786  33.4797716
  41.1905289  60.5464554  34.4343925  10.4333663  47.4815130  22.8607321
  10.2155018  48.3238077  23.2598686  10.7941020  46.9621277  23.5792994
  43.3091068  91.6665268   2.1772721  44.1297865  92.1551991   2.1147078
  43.5806322  90.7536983   2.2734752  35.6683207  88.5629368   4.5522782
  34.7208214  88.4395218   4.6092373  35.8940291  88.2789135   3.6664897
  20.0620008  36.8586802  89.2063236  19.6201205  36.4798737  89.9662399
  19.7131813  36.3722897  88.4593391  68.3922768  69.3228912   4.4782048
  68.6921549  68.4898615   4.8420236  68.4100246  69.1905355   3.5303664
  40.9359121  69.8669624  12.0496988  41.0809374  70.8105946  12.1186697
  40.0687647  69.7863102  11.6524756  76.8388319  66.7276764  42.7325916
  76.8889856  67.2319126  41.9205189  77.2634363  65.8954573  42.5243855
 110.9491062   6.3528204  33.6385036 111.1461544   7.0963830  33.0688381
 110.4472923   5.7538861  33.0856109  53.4969807  51.8645763  38.4254289
  53.4147215  50.9223890  38.2779622  54.4294357  52.0001221  38.5939097
  44.1616106  59.2372322  29.8509240  44.6770144  58.6810017  29.2668033
  44.1683149  58.7752628  30.6892395  52.8040791  49.1173792  38.0528212
  51.9302511  49.2771435  37.6962686  53.0613899  48.2714605  37.6861596
  20.7373905  59.9442720  17.5491595  20.5673957  59.6756363  16.6462934
  20.3733039  60.8275080  17.6088417  24.3594146  57.4161243  20.3583169
  24.8520470  58.2366991  20.3726745  23.8144636  57.4776220  19.5737934
  24.7462177  92.7068138  42.3229408  24.4657826  93.6183834  42.4043608
  24.8213148  92.3977757  43.2257652  51.8379402  33.9395881  23.8227344
  52.5898933  34.5313549  23.7980175  52.0780754  33.2739568  24.4673300
  45.1129341  90.6661892  25.5454803  45.6605482  89.9593639  25.8871722
  45.2324486  90.6244755  24.5966887  90.3063107  74.7782278  30.9187722
  90.1775837  75.5170584  30.3239703  89.4255638  74.4340324  31.0672832
  64.9052000  87.4701786  34.2181230  64.0895414  86.9694996  34.2020822
  64.6635532  88.3325768  33.8803458 104.4472694   6.4394665  17.0927846
 105.3944111   6.4949119  16.9659448 104.0764046   6.8323070  16.3026190
  75.2616787  77.5774384  19.5407021  75.9739399  77.0553160  19.1715169
  75.6692839  78.4139538  19.7650373  80.8454227  89.3466473  32.4415350
  80.8263874  90.2708721  32.1931791  79.9806166  89.1817284  32.8172231
  51.4431810  77.9836273  29.1778564  51.9487238  78.5778570  28.6232829
  51.9765663  77.1903658  29.2275000  30.9356427 101.5373516  34.0002465
  31.8292522 101.7930317  33.7715077  30.9007478 100.5985355  33.8168287
  37.8315759  63.0922318   1.3201521  38.0439305  62.1790171   1.1273426
  37.1353722  63.3120871   0.7011253  36.0737658  35.3288794  73.1209135
  36.8775535  35.1279116  72.6415730  36.3733268  35.7643747  73.9189386
  69.3528509  81.2701321  51.7932844  69.4789505  81.7838383  50.9955215
  68.6271238  80.6811714  51.5866995  73.2078075  86.8055534  48.5355616
  72.5471687  86.1294365  48.6860895  72.7350140  87.6307392  48.6439848
  43.6704159  75.5074930  14.8354697  43.0473804  74.9388361  14.3830514
  43.1699705  75.8823490  15.5602229  79.5220709  78.1658936  26.5083218
  80.3940010  78.4959793  26.7251682  78.9906502  78.3694839  27.2779822
  22.9266357  31.8742442  92.7123070  23.5025954  31.6570354  93.4453297
  23.3084226  32.6664519  92.3343182  40.3386593  83.2409477  16.0381365
  39.4623399  83.6023903  15.9052551  40.2085257  82.2926426  16.0422230
 113.1463146  74.4951725  27.1650743 113.8333321  73.8672113  26.9416714
 113.5631657  75.3512287  27.0669031  63.1445265  83.6022663  48.9246988
  62.1926308  83.5083199  48.9607477  63.3032990  84.5194912  49.1477013
  72.0423841  83.8977909  50.8512497  72.7930927  83.6493301  50.3118658
  71.3809252  83.2322121  50.6622648  65.9527826  68.9833164  32.1181273
  65.2507734  68.3707190  31.8987250  65.6498241  69.8259163  31.7797852
 109.6708298   8.7658828  26.3103056 109.3595028   7.8607386  26.3150287
 108.8793945   9.2907590  26.1904454  36.1884141  97.1279144  44.7309256
  36.0227251  97.6611805  45.5083609  35.6707549  97.5429726  44.0410042
  55.8202410  72.3159885  13.2803154  55.1904392  71.7282581  12.8629982
  55.3351021  72.7118731  14.0042949   7.5331241  60.6098366  76.2153625
   6.9436431  60.1366186  75.6281567   8.0681592  61.1497450  75.6335783
  67.4337101 104.2535877  32.4871206  66.6190052 104.6078205  32.1307302
  67.2617483 104.1528130  33.4233403  46.9740391  80.2139473  17.0193183
  46.2235546  79.7500801  17.3905754  47.4909163  79.5305061  16.5927219
  68.9335871  70.3492069  57.5629568  68.1739283  70.8374691  57.2455406
  68.7506723  69.4403076  57.3248863  24.0236616   2.5121221  27.7399468
  23.4497666   2.5563750  28.5047460  23.5128284   2.0373091  27.0843315
  50.9782887  92.5388050  29.0290880  50.9538651  93.4296417  29.3784499
  50.2235126  92.4908543  28.4423637  69.4349003  77.5173140  43.1521749
  69.5943546  76.6455555  42.7904510  69.6596622  77.4367857  44.0791225
  61.1925220  84.7893047  61.0435963  61.5700340  84.6089554  60.1826715
  61.0949612  83.9271069  61.4477301  74.2029428  77.6367569  45.6478643
  73.8090372  77.3036480  44.8415709  74.3096113  78.5752010  45.4923820
   1.1030949   5.3145689  15.5308115   1.5829019   6.1078715  15.2927208
   1.7576462   4.6173555  15.4897261  44.0610218  97.2235775  45.4102182
  43.7732410  96.7649651  46.1995792  44.6974421  97.8656197  45.7248211
  69.7861862  77.8810883  26.7932963  70.2071762  77.6692152  25.9601641
  70.1763391  78.7155724  27.0534015  59.4766235  97.5810051   3.5828894
  58.6779165  97.9425144   3.1986874  59.4068956  97.7841282   4.5156878
  58.3199453  76.0277033  24.5088983  58.2269192  76.8468285  24.9953270
  58.0699015  75.3478527  25.1346087  73.4523535 100.8169842  58.3751392
  74.0503120 100.2996159  57.8356791  73.6922503 100.5984211  59.2756462
  73.7244511  73.9120579   3.9479890  74.1558075  73.0654812   4.0640768
  72.8210306  73.6914587   3.7212804  73.7961006   3.9056915  82.9413509
  74.1118622   3.0130926  82.8006554  73.6613226   4.2537910  82.0599365
  29.6116161  71.3373423  50.7531500  29.9955058  71.9705153  50.1465607
  29.7160316  70.4925489  50.3153658  74.8200750  55.0637197  12.1527505
  74.2425156  55.3991842  11.4670968  74.8588610  55.7685137  12.7992737
  26.8900704  93.0256557  11.3694012  27.5390124  92.8004456  10.7027793
  26.8244267  92.2414589  11.9143403  44.3439436  52.9334497   1.1023081
  44.9288511  52.3386383   1.5716869  43.4645081  52.6597118   1.3628690
 105.4191875   0.7611445  35.6629133 104.6065235   0.6605943  35.1672411
 106.1091614   0.7320796  35.0000978  65.6433105  96.5828705  28.6287999
  66.1299801  96.0483932  29.2562747  66.2767553  96.7777824  27.9381561
  94.4232845  90.9681606  24.0381265  95.3466034  90.7881737  23.8611460
  94.3736267  91.0507488  24.9904609  32.0703435  86.9658184  23.9565992
  31.6846919  87.6658154  23.4298086  31.5310001  86.1981964  23.7666249
  79.4917059   1.8989888  52.9989958  79.3775368   0.9945422  52.7071524
  79.6888781   2.3857984  52.1987629   1.6508637  10.1620650  58.4597111
   1.4744557  11.0887444  58.2973003   1.9191486  10.1266551  59.3778658
  47.1834660 104.0461159  53.4517336  48.0502033 104.3675995  53.2034445
  47.3531628 103.2086658  53.8831425  89.1047192   0.2658431  71.6742897
  89.2206860   0.1864687  70.7274628  88.2029438  -0.0151179  71.8295288
  69.3495417 105.7758141  45.5235958  69.5658398 104.8474216  45.4368544
  69.9365997 106.2168980  44.9095631  34.8604441  70.1051521  44.1231251
  34.1819930  70.7792997  44.1613388  35.6339526  70.5220032  44.5028019
  70.5167627  83.9753342   6.7497873  69.6581697  83.6703300   7.0430773
  70.3598690  84.8653412   6.4343417  49.7378397  66.0925150  22.8458524
  50.3822041  66.4451361  23.4595966  49.1887140  65.5177307  23.3790660
  55.8811665  58.3730316  23.3673716  55.3836107  57.9370785  22.6755476
  56.7924118  58.1392431  23.1907201  80.4867268  38.9553285  18.1669140
  80.7458687  38.3743620  18.8821459  80.8857632  38.5684896  17.3875785
 111.5316486  81.5757942  23.2125974 111.2497044  80.9399796  22.5549722
 110.7194901  81.8698883  23.6250758  63.1294346  92.5055599  52.2620583
  63.7279654  91.7633057  52.1780491  63.5724831  93.2229710  51.8090010
  64.3233442  92.6850605  16.6055167  64.3978071  91.7347717  16.5181684
  65.0309038  92.9268265  17.2031307  87.9649067  12.3677588  36.3818884
  87.1071911  12.7589846  36.2160659  87.7689552  11.4838874  36.6927028
  67.4170828 107.2059345  38.2160544  67.4886084 107.4235535  37.2866678
  66.7698002 106.5015030  38.2479739  64.0609407  73.1128979  29.1335583
  64.8073196  73.2540369  28.5511231  63.3472776  72.8549480  28.5501337
  85.5681133  92.7349091  45.3626680  86.0013962  92.2365952  46.0556221
  86.1795807  93.4424114  45.1582718  90.1525497 105.7321358  59.8231316
  89.5680523 105.5430317  60.5571842  90.4039955 104.8710442  59.4891930
  49.5559978  31.7833185  80.5883121  49.8133850  32.5627232  81.0807705
  50.3654432  31.2810755  80.4945946  54.6858788  87.3436451  12.9033899
  55.0109863  86.6648197  13.4947693  53.8185549  87.0362949  12.6397252
  39.9744630  82.7487087  10.1642859  39.5168257  83.2948208  10.8034766
  40.8356142  82.5954723  10.5530858  28.1415296  39.0440822   6.6333497
  27.4108791  39.6002221   6.9037050  28.5019040  38.7066460   7.4534106
  58.6507702  87.1517658  42.1152258  59.3278313  86.8144035  41.5287018
  59.1247797  87.4061775  42.9069424  74.3081856  63.1784630  27.1969652
  75.2499819  63.3294868  27.1166587  73.9174414  64.0472174  27.1030664
  57.7313757  56.6141415  28.0697155  58.1371832  56.9572735  27.2735929
  58.4582233  56.2377548  28.5659599  46.7220116  87.9471207  26.3065314
  47.2796631  88.6287689  26.6815233  46.5211439  87.3698616  27.0431828
  26.2755179  20.8285332  91.4943027  27.0045877  20.2161884  91.5928936
  26.4616895  21.2932301  90.6784344  96.8850994  60.0881052  32.3544669
  97.2751617  59.6458244  31.6004968  97.2045040  59.5973301  33.1116676
  80.6867695  74.9449539  45.9783363  80.2030087  75.4606867  45.3331804
  81.5303230  74.7698784  45.5612040   5.9924263   8.6497289  31.3203812
   5.2982497   8.7416691  30.6677747   6.7342669   8.2924634  30.8322573
 111.1198807   4.6997899  67.0562935 110.6256294   5.5177736  67.1096230
 111.9179249   4.8690808  67.5569963  61.9017267  97.8520775  48.1843328
  62.5619459  98.5331440  48.3127880  62.3949718  97.0984077  47.8604078
  62.4449110  48.1550646  32.8757286  61.5789032  48.1898260  32.4694610
  63.0530596  48.0976295  32.1387839  77.0016766  57.4506140  55.5348253
  76.1134338  57.1805954  55.7679415  77.4843168  57.4252939  56.3610506
  43.1481552  95.1676750  29.6885157  43.1581736  95.5768585  28.8232398
  43.4759092  94.2810249  29.5379806  72.8945208 100.0545692  45.6692886
  73.7895870  99.8406506  45.4059792  72.5768566  99.2628002  46.1033773
  96.7244625  18.7594807  51.6905928  96.1984730  17.9774821  51.8580437
  97.5288296  18.6185443  52.1899557  65.1633644 103.8430309  14.9993074
  64.5991278 103.5862255  14.2699814  65.6219149 104.6220779  14.6845853
  71.7649603   0.2718545  29.6160412  72.0969105   0.5271503  30.4767752
  70.8126736   0.2941226  29.7103405 100.6426048  23.8044024  85.0799274
 100.7700634  24.7458696  85.1966476 101.4791298  23.4901810  84.7368050
 100.4076195   3.4147292  54.6287060 100.3820801   3.1170726  53.7193251
 100.9003544   2.7355316  55.0892925  50.9040880 106.2370586  62.9309797
  50.0697517 105.9721088  63.3181667  50.8102989 107.1776867  62.7804279
 107.1945000  14.5819414  81.0558701 107.2391701  15.2967989  81.6908646
 106.6644955  14.9309075  80.3392506  41.1371946 104.6057796  22.1375203
  40.9271383 104.8492718  21.2359571  40.6848145 105.2574062  22.6732087
  76.4806700 102.9354668  43.9132929  76.8859577 103.5484600  44.5266533
  76.8238211 102.0791340  44.1685963  79.2252302  86.2682343  52.8319836
  78.4904766  85.6824398  52.6497364  79.9955416  85.7004929  52.8092146
  76.5032101 104.8424530   6.2714916  75.5699587 104.9986553   6.4159578
  76.7068100 104.0844345   6.8193853  64.0307283  95.4727936  22.9964948
  64.7872972  95.5358601  22.4135184  63.2737303  95.5256176  22.4130607
  48.0085754  63.4568262   1.1888447  47.1026468  63.1477547   1.1882461
  48.3168411  63.2933187   2.0801762  56.5310192  83.9385128  35.6937551
  55.6893635  83.4837818  35.7264614  56.3457108  84.7519016  35.2243972
  84.7670937  81.2506771  41.2030745  84.0392017  81.6477203  40.7247877
  84.4035435  80.4424286  41.5647316  65.4760170  85.7069111  42.6037169
  65.1501703  86.3394165  43.2440233  66.3072443  86.0754585  42.3046112
  90.1536655  40.4391575  66.0949993  89.5867348  41.1523628  65.8014679
  89.6311855  39.9701595  66.7456102  47.9460812  88.0341339  45.0780821
  47.0981264  88.2675934  44.7003222  47.9415512  88.4390831  45.9453917
  43.4425449  65.8662128  26.4968777  43.3393002  66.2049723  25.6076002
  43.0724859  66.5481758  27.0574307  35.7582402  43.4282398  78.2747650
  35.3826666  44.2307949  78.6368179  36.6895771  43.6243677  78.1729078
  45.0492144  75.3168440  34.6474051  44.7513247  74.9893522  33.7987328
  44.4676590  76.0529423  34.8376226  44.5264912  73.4325790  26.8659663
  43.9167643  73.4933567  27.6013398  45.3642178  73.2024527  27.2678185
  43.4237909  63.6185360  44.1564655  43.4815454  63.3261061  43.2468605
  43.1746244  64.5407677  44.0961981  90.1185322  90.6006718   9.8127359
  90.7633972  91.1472034  10.2618253  89.3493271  90.6209755  10.3820670
  47.2216749  87.5927830  17.9038584  46.9699097  88.2329369  17.2382390
  46.4732647  86.9986725  17.9599857  72.7312803  84.0343285  31.4761162
  73.6664915  83.9618683  31.2854433  72.6909065  84.5382023  32.2889638
  52.5766802  85.6635475  24.6733618  53.3695126  85.1848221  24.9151754
  52.8923941  86.5205097  24.3867040  47.0097923  65.9823227  21.5580750
  47.9516935  66.0725021  21.4134145  46.7013168  66.8783617  21.6929412
  41.2555170  93.8356304  31.3079309  41.6565895  92.9671860  31.2735558
  41.9041443  94.4150066  30.9081244  97.7550697   5.7781106   7.1067894
  98.2314777   6.3314152   7.7257508  98.3526230   5.6782490   6.3657200
  29.4886088  72.9765177  34.4285917  29.7409558  72.0857859  34.1853952
  29.7205329  73.5076094  33.6667585  68.5665083  76.7150640  33.8614607
  69.3784857  76.9135618  33.3950710  68.0439568  77.5131941  33.7829566
 100.4553318  85.4063892  48.6681175 101.3761044  85.1564693  48.7452602
  99.9719620  84.6053886  48.8705683  35.7034159  87.0275593  25.4895210
  34.8545933  86.9956017  25.9307790  36.3381529  87.1311665  26.1984682
  44.0384722  87.8335667   4.7018942  44.3389845  88.4398842   5.3788692
  44.5297575  87.0286274   4.8660848  24.4553447  77.9111671  25.1266265
  23.9068389  77.4457073  25.7580686  23.8363242  78.4101534  24.5936584
  39.6737242  80.5522823  16.6826010  39.3318987  80.9435654  17.4865198
  38.9065623  80.1681137  16.2582111  66.6675234  88.1500435  52.7298212
  66.6205406  88.3884716  53.6556625  67.6042891  88.1346512  52.5336981
  27.1019030   6.4822912  89.7415257  27.8581166   6.7541009  90.2616119
  27.3551941   6.6653162  88.8367748 103.2064056   2.8682554  35.5367231
 103.4657574   3.6092213  34.9890566 102.7884197   2.2569121  34.9302745
  62.4593019  97.3994827  41.5461969  61.8160868  97.6393127  42.2132683
  63.2725286  97.2684479  42.0337677  53.0978537  96.3275242  36.6062784
  53.2173443  96.8604946  37.3923445  53.6333656  95.5493450  36.7608404
  69.7453260  93.5588360  19.7178650  69.6599817  93.1262875  20.5674815
  68.9020157  93.9912701  19.5834744  71.6192484  86.1069489  13.2315135
  71.4680433  85.2754879  12.7820265  72.1671677  85.8773136  13.9820361
  40.0437450  66.9511700  30.5515313  40.5275440  66.3792324  31.1473989
  40.6228161  67.0552349  29.7964978  65.6624889  63.7037706  21.5553427
  65.8043051  64.2961884  22.2936916  66.2054157  64.0620184  20.8531165
  61.4009142  95.5245972  32.9054499  60.7853079  96.1063385  32.4595404
  60.8458138  94.8847866  33.3512449  51.2776947 103.7669182  46.3868332
  51.2678194 102.8783798  46.7426920  52.0239830 104.1876411  46.8137789
  55.0407887  86.5001774  58.0971956  54.9927187  86.5074635  59.0531588
  54.2576694  86.9723892  57.8143978  60.3296709  91.4358139  14.0238845
  60.4117537  90.7194710  14.6534491  61.2189770  91.7780685  13.9332199
  81.7653179  64.7791100  44.8392487  82.2842121  65.5087137  45.1778460
  82.3922539  64.2457199  44.3507051  45.3538752  73.4409904   5.6906956
  45.7114458  73.8776636   4.9175903  44.6560001  74.0223074   5.9928083
  43.4193516  99.6584606  28.4435225  43.0138493  98.9975834  29.0048099
  42.7574587  99.8463058  27.7780557  56.7601299  92.5950146  60.1551962
  55.9787464  92.0708179  60.3309584  57.3729944  91.9824505  59.7485113
 109.7815800   9.6159023   6.3835198 109.3925571   8.8381141   5.9835988
 110.6888485   9.6137625   6.0784006  41.2828064  72.2639179  17.0069122
  40.5216408  72.7407503  17.3378003  40.9158659  71.4770699  16.6038513
  73.5118628  82.8435326  16.7713988  73.1935787  82.8441429  17.6741314
  73.0028009  82.1582508  16.3384140  74.9210644  47.8789663   1.7734107
  75.6044579  48.3252096   2.2734845  75.3799200  47.5060558   1.0206664
   0.8923618   2.4054790  33.8786006   1.5068395   3.1267899  33.7431026
   0.7735910   2.0253158  33.0081964  67.5680828  94.7527981  44.8578024
  67.5212240  93.8177872  45.0572634  67.2468472  94.8223114  43.9587975
  55.6805897  70.4329634  16.1005211  55.7739639  70.0848103  15.2137828
  55.4333973  69.6752071  16.6305482  37.1656680  95.4317951  28.8316512
  38.0876136  95.4244232  28.5743690  37.0179915  94.5687103  29.2182970
  50.5902719  76.4678001  24.8455572  49.9016190  75.8079624  24.7642994
  51.2266684  76.2342882  24.1697574 103.8154602  20.3399444  56.2540579
 103.5787201  19.4124842  56.2527800 104.2920113  20.4643607  57.0748234
  79.3436909  69.2012596   8.4481370  80.0028706  69.3655348   9.1224694
  79.4377041  69.9328089   7.8380346  57.3427057 106.5047932  29.7383356
  57.4200201 105.6373596  29.3410897  58.0109119 107.0301914  29.2982364
  78.5471249   2.5520438  12.5355923  77.8112555   2.6579180  13.1385171
  78.8485956   3.4446633  12.3665476   3.5028970  14.8099744  38.5529017
   4.3211296  14.7563648  38.0590868   3.7119728  15.3663778  39.3031931
  64.4087648  67.8410244  18.6070871  63.6058426  68.3332491  18.4360206
  64.2632914  67.4349308  19.4615793  48.3067322 103.9309216  58.0896997
  47.8669548 104.4063663  58.7945271  48.9679050 104.5420551  57.7647352
  50.5452633  56.8974590  21.8760586  50.6831694  56.3669014  22.6607394
  50.3000736  57.7602291  22.2103381  64.0777349  94.7105694  18.8060546
  63.2020283  94.3346214  18.8957238  64.6701336  93.9969540  19.0428126
  71.4336395  73.0086565  32.8382516  71.8433905  73.3323288  33.6404800
  71.2278605  73.7988424  32.3387623  76.5647316 105.8503819  34.8210478
  76.5027428 106.0161400  35.7617450  76.5275145 104.8970985  34.7428560
  58.9217281  64.7043657  22.6665735  59.5685577  64.1695690  23.1268358
  59.4254923  65.4367208  22.3114586  34.4214725  87.6689816   9.7637904
  34.8474598  86.8439865   9.5310974  34.9784040  88.3438873   9.3757689
  50.7763433  73.9435482  18.7011576  50.9804201  73.2736778  18.0485785
  49.8400545  74.1086912  18.5901535  84.1630554  72.3128700  43.8713646
  83.8334084  73.1898117  44.0676641  83.9867306  72.1940708  42.9380751
  68.6946392  89.5050621  33.9950061  69.4593191  89.6991062  34.5370793
  68.3167076  88.7178326  34.3870139  60.0520754  75.4693699  38.2538080
  59.1149378  75.6264114  38.1382918  60.3136921  76.0785484  38.9442348
  18.1203699  63.0742121  42.3647738  17.2878587  63.1410456  42.8324175
  18.4617138  62.2128963  42.6052952  24.0891719   2.9821387  59.7959328
  23.2268572   2.5770608  59.8884487  24.3591499   2.7693495  58.9025879
  79.8195314  89.5141888  41.5830183  80.4540634  89.3065071  42.2689295
  80.1065826  89.0008640  40.8278084  76.4188671  83.5545540  27.3888683
  76.2372446  83.9995193  26.5610671  75.8381748  83.9782143  28.0209565
  19.9441123  23.0275750  87.7616978  19.3949068  23.6528563  87.2887993
  20.0967026  22.3206830  87.1345997  58.5416746  87.0953083  36.9887400
  57.5930452  87.1992302  36.9143438  58.8504124  87.9407406  37.3145604
  80.3272438  93.4934330  59.0832710  80.1145935  94.3952274  59.3236256
  81.2636471  93.4117985  59.2641735  83.6146259  92.2980976  23.2571888
  83.7937164  91.3848019  23.0334759  83.1769466  92.2550392  24.1073704
  48.3309507 102.0851421  17.8613126  48.9915895 102.0438004  17.1698809
  47.9493904 101.2074947  17.8807878  82.3552418  10.5790412  52.5161886
  82.8256321   9.9822110  53.0982113  82.9729652  11.2920702  52.3542023
  22.1925187   0.9610702  89.8722744  21.8228745   0.0809982  89.9434662
  22.8313875   1.0107607  90.5833340  34.7382760  86.8957520  37.1809101
  35.6927276  86.9088364  37.1096230  34.5640612  87.0946312  38.1008720
  18.6602271  87.4493217  36.3706207  18.8151789  86.5200806  36.2010765
  18.4279418  87.4880314  37.2984004  65.3694105  95.6065369  25.3082395
  64.7733068  95.6802940  24.5629501  66.0876083  96.2042809  25.1005721
  33.4864378  65.3930712  28.1864381  32.8960204  64.9283981  27.5933814
  34.3344498  65.3751373  27.7428293  52.1054649  49.6978855  30.6496143
  52.8234863  50.1244831  30.1819658  52.4689007  48.8587236  30.9323668
   7.5300527  30.3738689  90.1385021   8.1982982  30.0530219  90.7440853
   8.0253214  30.7104754  89.3917465   0.5267417   9.8314351  42.0710325
   0.7205796   9.6974337  41.1432934   0.4061339   8.9485019  42.4204826
  42.2082472  63.6239290  35.8027959  42.1333170  64.0840960  34.9668145
  42.0728302  64.3034410  36.4632154  65.5163717  98.8519669  10.4922557
  65.2258635  98.2074070  11.1375260  65.1296282  98.5567379   9.6679378
  25.3508043  87.2234726  19.7301722  26.2158108  86.9447899  20.0307250
  25.1785088  86.6812038  18.9604378   4.8709470  78.9835072  37.5496864
   5.3050941  78.1304502  37.5434661   4.1121033  78.8702345  36.9773602
  55.6933308  79.2845821  15.1623487  55.9298611  78.8671207  15.9906077
  55.7772398  78.5884619  14.5107293  51.3608027  79.1484785  25.2820396
  50.9946442  78.2640934  25.2873921  51.5672874  79.3166542  24.3626332
  36.4822483  58.7201977   5.5911100  35.9825373  59.3284893   6.1356276
  37.3692727  58.7511539   5.9495270  77.6681709  83.8521099  33.0485582
  77.7514744  84.7913170  33.2134080  78.5458612  83.5765934  32.7840090
  81.2612915  91.1724663  28.9369845  80.5708122  90.6011868  29.2733145
  81.0802364  92.0252705  29.3321848  52.5370550  99.8155212  27.9167175
  53.1771803 100.3481293  27.4446988  51.8794632 100.4424381  28.2180142
  51.8373013  67.6807404   1.0230871  52.5492573  67.9152489   1.6183655
  51.8545866  66.7241335   0.9941362  50.2445173  27.9395223  77.9768324
  49.6566200  27.3635316  78.4655476  50.5787897  28.5521913  78.6319113
  54.3727398 101.8456650  60.6125116  55.0553894 101.3167763  61.0254335
  53.7313652 101.2074471  60.3001833  40.1765442  73.0207872  36.9724417
  40.8632660  73.6790848  36.8661594  39.5552850  73.2069492  36.2684441
  99.1011524  13.1503487   9.0089351  99.9017715  13.4505641   9.4391763
  98.4795094  13.8676775   9.1323292  69.2000389  71.2914753   1.1286128
  69.1527414  70.8569288   0.2770475  69.7562790  70.7203627   1.6583791
  36.7598104  13.6536062   4.6903425  36.1856580  14.1850495   4.1388452
  37.1064687  12.9843807   4.1002595  80.6403828  63.5665417  36.2710261
  79.7101831  63.4217072  36.0978580  81.0355949  62.6977491  36.1986518
  36.9678846 107.0638104  40.4806328  36.9349971 107.1123418  39.5252275
  36.0519901 107.1120527  40.7545710  10.7552433  29.1567159  69.7308826
   9.9024147  28.7241387  69.6885395  11.2220478  28.6980200  70.4293966
   9.7746062  17.7566922  46.8407011  10.3646410  18.5016656  46.7262220
  10.3472543  17.0355451  47.1019554  62.0489979  56.4527416  23.6101675
  61.6601992  57.2124386  23.1766629  61.3059092  55.9949207  24.0031719
  26.6227269  81.2412453   3.7484157  27.1043062  80.5556774   4.2113486
  26.9557762  82.0590687   4.1178450  25.1855516  19.7282434  49.9199057
  25.0469208  20.5531812  50.3851891  25.9130979  19.9083924  49.3245459
  90.3347111 104.0829563  67.7136755  91.0137939 104.0289783  68.3861113
  90.8084869 104.3048191  66.9120884  97.7698326  88.1153011  36.5856743
  97.0604420  87.8543568  35.9983873  97.3536968  88.1929779  37.4441814
  58.8884878 101.4649773  77.5791025  59.4851255 100.8814240  77.1103668
  58.2433844 101.7261410  76.9219398  57.9542971  81.6958523  14.2793930
  58.0584717  82.3731709  14.9476922  57.9847574  80.8722878  14.7662699
  67.7454710  88.4033108  17.6228797  67.7315331  87.8863716  18.4283674
  67.0319939  88.0441761  17.0954275  75.1410532  75.2496433  71.7251205
  76.0487700  75.3517437  72.0112228  74.9874210  74.3051386  71.7482805
  70.8002710  86.1231041  49.9628544  70.0255060  85.8431530  49.4754171
  71.1087608  85.3288651  50.3990221  17.9226983  25.0888109  32.5276136
  17.8380466  24.2788696  33.0306625  17.2413993  25.0272346  31.8580818
  86.0523987  77.1111441  41.9337416  86.3301849  76.2591696  41.5972900
  86.5067673  77.7467585  41.3807726  98.6975193  88.2916737   7.1789575
  98.2969475  89.0812111   7.5428289  99.6251488  88.5115337   7.0930284
  64.9448919  97.3140907  32.1312237  64.7558069  98.2087040  32.4143338
  65.6384945  97.0178986  32.7206397  49.9197197  95.2445412  17.9757333
  49.5832682  95.8983898  17.3629344  50.0533009  95.7271862  18.7914801
  93.7671566  92.3931980  28.6765909  92.9897308  92.7266693  28.2286596
  93.4325409  92.0225620  29.4932294  94.7198963  13.7162995  36.6987681
  94.2775440  13.0056071  36.2345695  95.6126308  13.3971179  36.8306136
  45.5544519  85.2522564  13.7424314  45.7221746  86.1830902  13.5952985
  45.7032537  84.8443127  12.8893948  62.3151016  94.8259068   4.4086859
  62.5574207  94.0933895   3.8421780  62.0604897  95.5225658   3.8036537
  68.7170076  74.0831804   5.2695996  68.1924295  74.5742559   5.9019691
  68.8988733  74.7110367   4.5703483  11.7005527  43.6527729  15.3736687
  11.6609251  43.1519556  14.5589042  11.7428517  42.9883480  16.0614038
 114.0746314  18.2621944  35.2820230 113.5878937  19.0858424  35.3123975
 113.5047324  17.6649308  34.7975397  82.7090454 101.4200020  27.7723217
  83.1927490 101.6923809  28.5521126  81.7953205 101.6206551  27.9750133
 111.5286446   7.1532178  22.0364594 112.3664665   7.4648601  21.6941571
 111.0900784   6.7650336  21.2793589  79.9375200  75.4659843  14.4357002
  79.5565891  75.8227634  15.2380919  79.6962976  76.0950422  13.7557518
  83.3822346  94.9561787  57.2835445  83.0685043  94.7560978  58.1654596
  84.1746902  95.4746151  57.4231100  81.1687088  96.3689613  39.4864535
  81.5509701  95.9101200  40.2344990  80.6416607  95.7049370  39.0420055
  90.3072166  13.3943212  48.2421017  90.3968239  14.3467736  48.2098722
  90.8511353  13.1275189  48.9831781  79.0238667  73.7799454  68.6539650
  79.7943592  73.4877014  68.1669664  78.3215714  73.7963247  68.0037737
  59.2174292  92.5374126  56.3988638  59.5229769  92.8620720  57.2459030
  59.8007441  92.9478264  55.7604790  69.4580269  75.1430607  16.8123651
  68.8365459  75.7732153  16.4478123  70.2302170  75.6658125  17.0284426
  86.9839954  93.0217075  59.3673849  86.4379311  93.2980728  60.1033592
  87.8670979  92.9652214  59.7323132  75.9480429 101.2269497  66.8776989
  76.5051508 100.6709671  66.3329554  76.1663246 100.9780502  67.7758265
  49.8342705  98.6547279  22.2135830  49.8607588  97.7333355  22.4715543
  48.9022779  98.8488483  22.1138978  74.7077322 105.3260040  47.3768330
  74.4247341 105.0845146  48.2587767  74.7300100 106.2829018  47.3860455
 110.8071995  14.4051671  34.7273946 111.5580273  14.8886108  34.3827605
 110.2398109  15.0790501  35.1018047  19.0212655  28.0590081   6.4918274
  19.4758761  28.2501888   7.3121995  18.4029424  28.7820673   6.3865095
  89.3201351 100.6264687  31.6679311  89.3094444 100.7834148  32.6121163
  88.3969021 100.6231785  31.4152122 106.9155216  85.6896114  61.5517998
 106.0271168  85.9368134  61.8084383 107.4795151  86.3108730  62.0124292
  66.6252947  79.7758818  55.8033514  66.1500549  80.5709076  56.0448360
  67.4140978  80.0926971  55.3632927  82.0306206  90.2677250  66.3757563
  81.9767952  90.3297806  65.4220867  82.1789455  89.3377686  66.5472746
  82.7997875  14.8872650  51.9688559  82.9422092  14.0165806  51.5975666
  83.6793041  15.2509618  52.0708275  81.0884762  90.8371830  56.1047506
  81.3753605  90.1786900  55.4720402  81.5691090  90.6257439  56.9050741
 109.4193935  57.1251726  89.5415783 110.3219414  56.8135500  89.6088696
 108.9355850  56.3818455  89.1815376  89.1716385  87.8907776  63.6959076
  89.3459415  86.9779587  63.4665298  88.5875034  87.8402615  64.4525290
  89.3876648 105.7293892  25.1293993  90.0585365 105.0796509  25.3391480
  89.3836212 106.3209820  25.8818889 105.6524467  77.4405622  53.1648588
 105.5265808  78.3870411  53.2324219 106.4932251  77.3420477  52.7180576
  99.8903465  31.5778160  27.6045108  99.7283173  32.5211978  27.6020026
  99.7931004  31.3205314  28.5213423  52.6442146  89.6872234  37.9836750
  52.7158785  88.8679600  38.4734774  52.8683424  89.4488716  37.0841289
  58.7801456  90.9593678  59.5304394  58.3535814  90.3728390  58.9057302
  58.7929678  90.4668331  60.3511000   6.4423752   4.3986943  39.5715427
   5.6951618   4.7811973  39.1115475   7.1752560   4.5007777  38.9643383
  55.6935692  72.1129990  70.0818825  54.9635983  71.8002081  69.5475292
  56.2568474  71.3466692  70.1900148  87.6766205  87.0815182  31.4138269
  87.1457672  86.3503075  31.0979962  88.5636044  86.8798256  31.1158133
 108.3356667  82.0266247  70.7313395 108.1350517  81.7964172  71.6385269
 108.6041546  81.2008858  70.3284645  93.2672977  75.5388069  41.6495943
  93.3683586  76.4883232  41.7162132  92.6285172  75.3177929  42.3273373
  50.7312155  43.9783287  28.7428141  51.1802292  43.1943893  29.0591335
  50.0857973  43.6487770  28.1174660   2.9873580  35.5656695  40.8994341
   3.9181182  35.7496309  40.7726479   2.8286138  35.7593298  41.8233013
  65.6903505 104.1225529  44.7721720  65.1406479 104.5777988  45.4099894
  66.4204216 104.7212219  44.6146345 100.2996254  16.4532590  41.3724899
 100.7425976  15.6145477  41.5012455 100.9002399  16.9599032  40.8258581
  46.4888144 104.9054241  44.9445009  46.5955162 103.9667702  45.0986958
  46.2906742 104.9737263  44.0105247  50.7857609  90.0940800  48.5702419
  49.8865986  90.3873444  48.4228325  50.8915901  90.1148796  49.5213461
 104.9325275   2.9485768  26.5924644 104.9339581   2.9638937  25.6353879
 105.6685257   2.3820837  26.8240404 107.9694748  12.3334301  36.6125226
 107.0998859  12.0718861  36.3097835 108.5185719  11.5650964  36.4563632
  93.0425930  99.3528461  31.8013144  93.1430531  99.9100494  31.0295200
  93.8531017  98.8448906  31.8371415  50.0611067  29.5323491  53.9043427
  49.5759916  30.0003099  53.2247066  49.6443844  29.8000383  54.7234392
  67.9743814  84.5181656  35.6978822  67.5344849  83.8906193  35.1243711
  67.6199293  84.3365097  36.5682817   5.4272562 100.2318287  32.1089506
   4.7607347  99.6552372  31.7354178   5.9300584 100.5373573  31.3539195
  57.8582287  54.7904110   8.1745893  58.4105825  54.1969109   7.6657742
  56.9728708  54.6345901   7.8458112  12.0924366  14.6852076  30.1351452
  12.3704970  13.7693095  30.1418567  12.7201140  15.1218593  29.5593071
  77.8353405  69.6172953  72.6173019  78.7306118  69.9188948  72.7714300
  77.3302412  70.4206324  72.4917889  66.3984442  89.8850727  42.5602007
  67.2835636  89.5235825  42.5140667  66.4849949  90.7748699  42.2181654
  76.5988493 105.6499290  50.3086615  76.6496181 106.5811729  50.5241680
  76.0455179 105.2753067  50.9940147 102.7621269  91.4027119  27.4426007
 102.2055149  92.0047665  26.9486976 102.9900551  90.7173443  26.8144679
  95.0520515  10.5221665  60.3416252  95.6462097  11.2262559  60.6013632
  95.0223732  10.5740166  59.3862915  42.8509808  48.3209085  92.8257179
  43.7978888  48.4481573  92.8840733  42.7305555  47.7700996  92.0521927
  76.2519741  59.9510098  53.2638073  76.4065886  59.4356108  52.4721670
  76.2963200  59.3139410  53.9768362  90.7116699  15.2037966  29.7671175
  89.8783302  14.8914313  29.4147086  90.4705620  15.9246850  30.3488541
  16.5715468  38.7980342  32.6240730  16.2090504  39.5503211  33.0919313
  17.2207904  38.4324312  33.2249475  76.4545250  91.5051460  32.3382616
  76.0298491  92.2622681  32.7415538  75.7841825  91.1308193  31.7666411
  71.0735226  29.1119099  37.2271562  72.0048380  29.3291235  37.1858525
  70.9938478  28.3021903  36.7229366  85.0753403  76.2581587  56.1447287
  86.0037327  76.3267708  55.9219933  85.0508595  76.3423729  57.0979071
 112.1185875  81.2473869  14.2364097 111.4487362  81.7976856  13.8305807
 112.1886253  80.4887104  13.6569786  20.6870627  85.1299286  88.1492138
  20.2444649  84.8663235  88.9559650  21.1589503  85.9286785  88.3849239
  84.7426128  99.6837711  38.8623810  85.4254723  99.6773911  39.5331240
  84.0080547  99.2197132  39.2639947  98.1335258  14.6352851  12.1614301
  98.3880043  15.0599062  11.3421822  97.3485088  14.1351473  11.9382012
  58.9871454 106.6787624  58.4505701  59.5994186 105.9916496  58.7136936
  58.3892488 106.7640305  59.1931868  97.2636223  15.8508956  54.9774408
  97.5573730  16.5451825  54.3876028  96.4697552  15.5079532  54.5670843
  61.7787218  80.0655079  14.4646740  61.0594797  79.9631643  13.8414192
  61.8050718  79.2342901  14.9386072 103.5193062  20.7556415  16.9215369
 103.9497662  19.9312496  17.1480620 103.0124760  20.9832764  17.7009881
 113.4156227   0.4517995  43.0376148 112.6788712   1.0579374  42.9600096
 114.0572929   0.9217040  43.5702276  80.2072716  79.4913244  13.5835779
  79.4770813  80.0388145  13.8722205  79.8100281  78.6403227  13.3985555
 104.2294979  25.0060534  74.7578239 103.3583736  24.9809217  75.1537275
 104.0771580  25.3092694  73.8627911   3.0034217  21.1188698   9.5152372
   2.2568665  20.9702253  10.0955749   2.7171272  21.8217278   8.9319229
  15.2058220   2.9192066  49.0242290  15.8265042   2.3707035  48.5445070
  15.1537085   3.7261656  48.5120440   2.9903713  24.1397524  92.7240372
   3.8191894  24.2515564  93.1896400   3.2105318  23.5905313  91.9716263
  65.3283930  88.8277721  29.5232701  65.8313370  88.8326454  30.3376770
  64.4215393  88.7018585  29.8025513   9.1565388  34.0387893  19.6212590
   8.9904439  33.2413673  19.1185057   8.7924826  33.8560128  20.4874492
  62.1017742 105.4577446  33.0260777  61.7901611 104.5615578  33.1524730
  62.4530649 105.7117844  33.8794804  40.9342575  84.7419548   5.1820540
  41.7015123  84.1805267   5.0708902  40.5980825  84.5190048   6.0501057
  89.3974304 101.2309742  38.0914545  89.6630573 100.4050922  38.4959126
  88.5320950 101.4103603  38.4592271 109.7228527  87.9506779  86.7375278
 109.1261005  88.6898899  86.6205120 109.2382050  87.3365974  87.2891140
  42.9707336  54.0682793  20.9539723  43.4436417  54.0597248  20.1217985
  42.2331572  54.6597147  20.8042383  78.1205416 105.1180744  16.9175744
  78.3853626 105.8006859  17.5341380  78.6300278 104.3503475  17.1768808
  62.3891878  86.4292812  34.5468450  61.7106819  86.1372185  35.1555800
  62.1504784  86.0276127  33.7114358  93.8086224 102.3235989  19.8019230
  93.2379341 102.4168396  20.5647182  94.0614796 101.4004040  19.8033941
  19.6221340   1.4466269  50.2908039  19.8002112   1.4271948  51.2310886
  20.2485824   2.0804572  49.9414396  70.8722305  82.3617744  42.1970367
  71.4854574  81.8771172  42.7495718  70.2089643  81.7164993  41.9522285
  16.4612198  10.1926506  51.3307428  16.3649964  10.6063640  50.4729462
  15.5697560   9.9498969  51.5809298  95.8415222  98.4706593  72.1516991
  95.1830196  98.7940884  72.7665186  96.4219379  97.9283142  72.6857519
  39.8081589  69.4385576  22.3361802  40.4824829  69.9991226  21.9523978
  39.1407180  69.3654013  21.6539764  71.3710976  89.6630859  32.0382094
  71.0877037  88.8746548  32.5011301  70.7187033  89.7832012  31.3481426
  10.3784871  21.1407089  16.0661221  10.1192677  20.4323268  15.4768586
   9.7748256  21.8549824  15.8620727 110.7118416 101.5700531  27.6750946
 111.6045284 101.4111710  27.9818630 110.3272724 100.6971931  27.5947475
  90.4360008 100.1170826  26.3028455  90.5017567  99.9370384  27.2406602
  89.5220661 100.3691292  26.1708498  86.0162544  91.5852451  24.9864507
  86.0584450  92.5288868  24.8315382  85.2628326  91.2918568  24.4740915
 101.2672234  86.3825512  27.9971099 101.1024761  86.8109226  28.8371015
 102.2167683  86.2646294  27.9705524  69.6426201  94.8808002  60.3292227
  70.1152372  95.6735325  60.0753450  69.8227072  94.2585468  59.6245241
 113.5105896   8.4211504  33.6148548 112.5852966   8.6070806  33.4551740
 113.8847637   9.2656970  33.8657880  58.2771444 103.1818390  65.1223564
  57.7152061 103.2790470  65.8911276  58.8276482 103.9648819  65.1275158
  83.8052368 107.0702934  76.5235233  84.3127251 106.5660858  75.8875465
  83.3486271 107.7276325  75.9985018  89.2452812  11.9104171  29.3193698
  90.0553131  12.2627473  28.9506674  89.2108822  12.2674835  30.2068114
   9.6389908   8.7931830  20.6941175   9.1542912   9.5680970  20.9783840
  10.5084813   8.8996404  21.0799742  80.1080704 101.2166691  29.3090224
  79.3705797 100.6068802  29.3312979  80.5783463 101.0537529  30.1266599
  39.1107702  69.4440985  30.1938033  38.7200189  69.9649382  30.8954239
  39.2277122  68.5749483  30.5773759  92.1376228  20.2700543  40.0084019
  92.9255486  19.7266436  39.9978089  92.1985245  20.7958055  39.2108369
   3.8703111  15.2331972  61.1294365   3.2981813  15.3707445  61.8844032
   4.0552124  14.2940557  61.1369896  42.8460073  47.5849962  87.7500439
  41.9041300  47.4454260  87.8481102  43.0053186  48.4373617  88.1554127
  19.1515446   3.3995318  56.3327026  18.2272923   3.4349391  56.0862541
  19.6160579   3.2821855  55.5040312  78.3314562  89.7617722   4.9619484
  77.5159645  89.2612171   4.9872994  79.0207624  89.0986633   4.9990168
  58.5346031  94.3471718  58.5250521  57.8681517  93.7398529  58.8463593
  59.1815710  94.3873310  59.2293596  26.3113594   8.5820061  68.0825138
  26.3084340   9.1900116  68.8218069  25.4721785   8.7307471  67.6467609
  47.8210068  74.2300367  18.4805322  46.9515753  74.3696737  18.8557911
  47.8351784  74.7805262  17.6975930  76.1620522  98.3852577  69.0499878
  75.4567575  98.2990742  69.6913671  76.1749887  97.5439167  68.5937023
 105.7764053  65.6363773  14.7801018 105.6712246  66.1495209  15.5812585
 105.3185368  64.8152208  14.9597812  64.6529055  78.4211349  61.5431356
  64.1097784  77.7164793  61.1900043  64.5232058  78.3718252  62.4902248
  78.3643246  92.2234821  57.2706413  78.5987806  91.2960243  57.3035049
  78.8579226  92.6208782  57.9880428  54.0539742 102.9228401  31.1168814
  53.1553793 102.6126575  31.2289143  54.5965004 102.2180557  31.4706802
   5.1698124   7.8903133  19.9722064   4.8022619   7.4964082  19.1810191
   4.4445014   8.3861691  20.3520513 108.0523968  77.9292870  46.7406511
 108.7239933  77.4229956  47.1976614 108.1449604  78.8170338  47.0864439
  77.8374434 102.9576111   7.8195935  78.4035969 103.4084415   7.1931398
  78.4428167 102.5061703   8.4077752  96.2694168  70.2924728  21.6347742
  96.2388134  71.2390280  21.4957404  95.3961945  69.9861002  21.3901210
 106.0791302 106.3346386  57.5726175 105.4612827 105.9116936  58.1689501
 105.9072590 107.2708035  57.6740742  57.9471111  65.9372711  88.1107807
  57.5587654  65.0654173  88.1835365  57.1996593  66.5348721  88.1313038
  77.0304918  74.1012764  28.3846068  76.9763660  74.5246696  29.2413664
  76.1517763  73.7529945  28.2336187  81.1386204  21.8990946  44.8528194
  81.7669964  21.8972182  44.1307592  80.8933544  22.8187346  44.9544954
  96.4534473  87.3818398  75.8362961  97.3708820  87.6289940  75.9523439
  96.2140369  86.9563484  76.6596270  42.1863794 102.0093441  38.6115289
  42.7931929 102.2644711  37.9166055  41.4980793 102.6739788  38.5844064
   7.2415322  24.4118690  31.2640643   6.7378950  24.8681402  31.9381547
   7.4315476  23.5549593  31.6459441  86.8498039 102.7320766  16.5477967
  87.4736595 102.0900631  16.8866754  87.3255348 103.5624313  16.5685844
  20.5425692  45.7293606  78.2101154  20.4020452  45.0245047  78.8423061
  19.7388136  45.7489634  77.6906729  76.6794348  95.7998943  38.5461402
  75.9141874  95.9839439  38.0013919  76.8956614  96.6415024  38.9475965
  56.0281229  86.0272980  34.1487861  56.8586016  85.8083439  33.7261772
  55.5029917  86.4240646  33.4537697   4.8440009  32.2747016  52.9935503
   4.4572523  31.3991141  52.9956913   5.7788569  32.1239519  53.1333733
 112.2667503  29.0653586  41.4598036 112.4357510  29.2194533  40.5303240
 112.8748417  29.6487856  41.9137478 104.6936512   3.4279135  64.2905045
 104.2513847   3.3230945  63.4480953 103.9862823   3.5958260  64.9131298
 110.8636856  94.9217510  16.5852809 111.5330219  94.9700451  17.2678411
 110.1377678  95.4456139  16.9241810  73.7015104  64.9246168  48.9482784
  73.2886696  65.7630205  48.7412024  73.5690165  64.3921995  48.1639242
  21.0343599  16.5072298  51.5772486  21.7927313  16.9662011  51.2160730
  20.4096794  16.4699268  50.8529472  83.6651802  96.0274982  37.2914886
  84.6204185  95.9672642  37.3027086  83.3702469  95.2422047  37.7525306
 108.9130020  92.6609707  44.6333838 108.8879490  93.3250332  43.9444542
 108.7829781  93.1523132  45.4444981   5.6841213  77.1898365  50.9244919
   5.5328286  76.2598324  51.0931253   5.9220791  77.5523710  51.7778206
  73.2745790 104.2121792  31.6425872  72.7450991 103.6382866  32.1962404
  74.1420746 103.8076115  31.6387653  92.4082661  61.8152571  38.8109326
  93.2716846  61.9881153  38.4356213  92.5772381  61.6640806  39.7408915
  49.6413183  94.6607208  10.3999984  49.1706610  93.8994694  10.7394302
  49.3295145  94.7532558   9.4997495  53.9744329  41.9928932  27.8743076
  53.6507273  42.3693180  28.6926913  53.1888628  41.6734886  27.4303555
  81.6273594  72.7109289  47.6670218  82.4954224  72.5769138  47.2865629
  81.2229156  73.3776808  47.1119595  51.0008383  95.1183128  32.2529507
  50.3357267  94.5450974  32.6341057  50.6936598  96.0038376  32.4471855
 110.5626678   2.1006785  34.6711874 111.2511921   1.4874199  34.9282670
 110.4442787   1.9485568  33.7335992  24.6852922  53.6051989  78.7797022
  24.9154353  54.2236233  78.0862904  24.9573851  52.7525854  78.4402227
  70.8270407  95.7194996  25.4614425  71.2724161  95.1764679  26.1118221
  71.5064096  96.3108730  25.1374745   7.5105077  24.7791386  37.4587536
   8.1011909  24.2811251  36.8936801   7.5821102  25.6805706  37.1448612
  61.1636114 105.8364487  24.3655705  60.7123613 105.0150394  24.1708946
  62.0562124 105.7005215  24.0477419 107.0174694  96.3748932  49.5315027
 107.2520065  95.6655312  50.1298523 107.7817535  96.9511890  49.5319891
  76.3638783   2.8764465  20.3819919  76.5590096   3.8089925  20.4742718
  77.0944691   2.4348855  20.8150029  91.9172573  93.1510925  55.1913881
  92.3997688  93.9745712  55.2642250  91.9956398  92.7501965  56.0570478
  90.7129765  82.4062824  67.8180695  91.0048294  81.9523335  67.0275116
  91.5184021  82.5818634  68.3045912  50.3479958  96.6722679  20.1260424
  51.0301924  97.3268700  20.2754760  50.6701756  95.8857727  20.5663347
  63.1691170  79.3613672  21.0659933  63.6515760  79.1192436  20.2755237
  62.2481918  79.2644119  20.8236408  74.7376347  33.3216834  87.7842999
  75.0547266  34.1928554  88.0225182  73.7878942  33.4218979  87.7196121
  69.6566153  82.9115391  49.1753435  70.1131392  82.4112320  48.4989500
  68.7508535  82.9572201  48.8691711  44.5017004  41.3959455  83.7622070
  44.2913723  41.9344711  82.9993343  43.7868881  40.7612658  83.8117790
  98.8798332   1.7662236  12.0961940  99.3234158   2.6031101  11.9580233
  98.6253166   1.4822328  11.2182426 108.5489273  67.8368139  18.9594758
 108.8517094  67.9087973  19.8646677 109.1344643  68.4100723  18.4647536
  77.6900482  73.2352114  14.1144598  78.5023260  73.6751318  14.3652821
  77.7214050  73.2012939  13.1583750  91.7870808  26.2084675  33.4616446
  91.6000462  26.6743803  34.2766142  92.2550583  25.4205847  33.7381625
  12.5080359  43.6224937  50.2069426  11.9823992  43.7575579  50.9954214
  12.4088454  44.4350767  49.7108603  29.0626788   0.7131049  39.2399001
  29.1965556   1.6593595  39.1859436  28.1128073   0.6027874  39.1974044
  94.4707394  18.8514960  40.8877420  94.3342018  19.4126749  41.6510677
  94.5386791  17.9677880  41.2492323  60.3943348  82.8891945  19.4122231
  61.0826826  82.2377777  19.2778432  59.8105717  82.4910736  20.0579453
  56.3974905  92.8582096  56.7450380  56.1154890  92.4943066  55.9058189
  57.3499012  92.9195118  56.6716003  11.5782499  22.4285078  68.4610987
  11.0886908  22.6696014  69.2475033  11.0681045  22.7959800  67.7393293
  41.1006784  95.8325291  19.6581495  40.9008074  94.9112797  19.4920993
  40.5497980  96.0662460  20.4052377 104.7571373  76.3547277  20.5632448
 105.2898312  77.0206070  20.9980774 104.6830177  76.6601467  19.6591115
  70.9799862 105.5510616  37.1206641  70.3392601 106.2592983  37.0565248
  71.4969015 105.7653332  37.8972721  71.0216951  95.4759026  21.7000532
  70.3597832  95.3346252  22.3769140  70.6496525  95.0759315  20.9140277
  77.9198503 106.1769581  42.0467710  76.9699907 106.2540722  42.1365023
  78.2555389 106.3066959  42.9337406  58.1695461 102.7547646  16.5187287
  57.2612953 102.4591827  16.5815914  58.3725500 102.7079105  15.5844772
  92.8827477   0.6607224  42.1706247  92.4381828   0.4002164  42.9773045
  92.1754932   0.7927663  41.5392876  78.4926462  73.8995028  73.7706661
  78.3194399  74.8147440  73.5502958  79.1735649  73.6295033  73.1544828
  49.0468788  90.8148193  19.0727901  48.7422752  91.7168140  19.1720355
  49.6412182  90.6801414  19.8109329   5.9641284   1.3428177  40.1247168
   6.5841269   2.0666575  40.0358868   6.0446262   1.0692712  41.0384560
  79.4733095  11.8715727  38.4414411  80.2895164  11.3788700  38.3560848
  78.8320065  11.2238693  38.7337470  52.4758005 106.7149258   5.9331781
  52.8001404 107.4084568   6.5076798  52.2494030 107.1646118   5.1190782
  71.6751862 102.5071526  87.2660828  72.3169804 103.1457233  87.5768185
  70.8734179 102.7219772  87.7427769 107.7400398   9.1467035  38.7845874
 107.7428627   8.2147580  39.0029955 107.6584148   9.5903170  39.6288490
  73.6931181  97.0318604  28.5986876  72.7994871  97.2418308  28.3274627
  73.6663294  97.0613575  29.5550585   2.2365969  66.3624525  31.6740584
   1.6014248  66.7020273  32.3045158   2.7957115  65.7795191  32.1876884
 105.8850670   2.8330374   7.1613497 106.4780712   2.7409673   7.9070747
 105.8324432   3.7770998   7.0123249  85.5933478 107.1925515  56.6410828
  86.0682610 107.7950153  56.0686064  84.8011532 106.9712721  56.1514950
  40.9521770   8.8985586  35.9202456  41.1650610   9.2255157  36.7943215
  40.2068520   8.3140033  36.0581398   0.4205108  25.6205273  43.2578850
  -0.4644370  25.9845924  43.2342863   0.7673959  25.8891416  44.1086197
  74.0338373  83.8300323  41.2592173  73.8098812  84.4005966  41.9944239
  73.1889439  83.5436726  40.9122419  73.8517237  90.2445698  31.5883088
  74.1338587  90.5224133  30.7168531  72.9101133  90.0971699  31.4995480
  21.2237597  23.2801771  14.9706566  20.6382847  23.9196539  15.3762698
  20.6663847  22.5216866  14.7967124 109.9611664   8.9325744  12.4798918
 110.7164288   8.3456194  12.4439466 110.2032757   9.6690863  11.9184983
   9.6945119  18.6471033  40.2620935   8.7464333  18.5575485  40.1653576
   9.9005592  19.4813216  39.8403597  75.4586554 100.4117298  55.0405836
  75.3419065  99.8210716  55.7847118  75.9677649  99.9036026  54.4090414
  71.0349989 103.4500504  59.9249983  70.3559208 103.2686520  59.2752409
  71.8277550 103.0581284  59.5587206  99.3777847   5.2987128  20.7956767
  98.7252331   4.7456264  21.2252188 100.2186394   4.9178687  21.0489631
   6.7554033  17.6072347  19.2408395   6.4835197  17.5811660  20.1582432
   6.0492092  18.0748832  18.7949383  43.0266571  21.5153623  39.5283413
  43.4239626  21.2610579  40.3612328  42.6716280  20.7002974  39.1735768
  85.7487679 104.0339088  50.2806377  85.1162910 104.4403839  50.8730745
  86.6026211 104.2726898  50.6414080   1.1427978  91.8542862  11.7117429
   0.3998426  91.8778896  11.1086738   1.4541072  92.7588844  11.7437744
  91.2225533 103.4751225  71.0385084  90.9077168 104.3442822  70.7901716
  92.1488953 103.4780216  70.7974291 107.3512936   6.4717537  36.1653543
 106.8210030   5.7343423  35.8632779 106.8073273   6.9041735  36.8236399
  11.5277696  15.8227372  47.5068331  11.9182885  15.1722634  46.9232178
  12.2713506  16.1993814  47.9774284  94.5793533 103.6959457  43.4252167
  94.0993881 104.3748188  43.8995600  95.2738571 104.1693115  42.9671574
  80.7790852 105.7215881  88.7828255  81.3532257 104.9610901  88.6920166
  80.7123184 106.0784054  87.8971291  57.5929356 104.9571705  25.1854658
  56.6952276 104.9834156  25.5166197  57.6022768 104.2182732  24.5770407
  86.1769962  19.3599153  51.2596464  86.6739845  20.1059628  51.5952778
  86.8200111  18.8422680  50.7750702  94.5768738   2.1805291  65.3481722
  94.8586941   1.2680012  65.4122257  94.2470074   2.3912087  66.2216902
  99.9412060   8.4867305  41.2146139 100.5613708   8.0074549  40.6651449
  99.5663261   9.1475356  40.6323528 111.9739723  23.5218906  33.1871080
 111.7302704  23.6506248  34.1037679 112.4051476  24.3390250  32.9368782
  91.4249992  26.4354968  26.9353938  91.0224247  26.5131974  26.0704541
  91.4063072  25.4974270  27.1248841   1.2879498  23.1448007  24.1417718
   0.6841643  22.5369096  23.7149906   0.8269831  23.4245443  24.9326491
   1.8328902  15.6118500  44.9630070   1.7959437  15.2905464  44.0620995
   2.7040929  15.3619492  45.2708817  54.3142796   4.0958574  33.1563616
  54.4104004   4.7891009  33.8093591  54.0954399   4.5577997  32.3470712
  73.4470463  99.4913006  39.7049403  72.4959087  99.5981407  39.6927118
  73.6801815  99.3165779  38.7931538   1.6999380  18.9754486  31.0168624
   1.7629142  19.2076528  31.9433331   0.9591151  18.3710206  30.9712529
  87.5390434  22.6925492  50.5834770  88.2117748  23.3713198  50.6376171
  87.6354980  22.1944547  51.3951588  29.0944171  30.1990151  50.0707865
  28.2839632  30.3089666  50.5680895  29.2022347  31.0268331  49.6024656
  80.9619331  73.9317417  71.7292881  81.2184525  74.4601870  72.4850512
  80.7858944  74.5708609  71.0388041  61.0180902  94.7419739  27.2392750
  61.9724751  94.7513580  27.3120618  60.8083344  93.8525200  26.9545102
  48.7968588 102.2975445  48.1704855  48.7889719 101.3403797  48.1740284
  49.1606092 102.5372219  49.0228224  44.5363808  35.4460359  29.9509645
  43.7902975  35.7415867  30.4727316  44.2203856  34.6603632  29.5047617
  43.8790560  63.2151127  50.6970406  44.7426605  62.8847361  50.4495001
  43.6959839  63.9068604  50.0612736  73.4564257  76.2444592  28.0945992
  73.6382341  77.1079397  27.7236843  73.9328432  76.2352419  28.9247632
  67.8737926  99.2332077  22.3316193  68.3879805  99.1334438  21.5304375
  67.6617718 100.1660156  22.3655415  33.3821344  17.2053015  47.6947403
  33.5490990  17.2768223  48.6345482  34.0340734  17.7784443  47.2913599
  99.6642876  11.5958726  60.2835178  98.8782120  11.5440691  59.7397900
 100.3896427  11.5151048  59.6641970   8.1903005  33.6802959  51.5852308
   8.9654219  34.2416811  51.6014957   8.2220292  33.2040644  52.4149466
   2.4774586  17.1600568  36.4073539   2.1969403  16.3901496  36.9021130
   1.7370185  17.3594558  35.8344483 110.7232380  14.9897218  29.2937040
 110.4415417  15.6460965  28.6564803 110.1980686  14.2161298  29.0888000
   8.2846403  29.2866349  29.5111680   8.0622965  28.7505174  30.2723336
   8.1453043  28.7078571  28.7616134  79.0725374  98.3625412  39.3602872
  79.3752241  98.5343075  38.4685993  79.7889519  97.8748417  39.7666407
  93.0546474  95.7794380  50.9391069  92.4332047  96.3757801  51.3567591
  92.6332188  94.9214077  50.9882498 110.7173443 101.5961170  51.7312622
 111.0934830 101.7623806  50.8669138 110.4295254 102.4563885  52.0367432
  32.2650337  10.3009522  23.7419963  32.6764536   9.8847115  24.4994330
  31.4661574  10.6965327  24.0906286  60.3022766  85.1897144  57.9396439
  60.5563021  84.3022633  57.6864052  60.8798838  85.7586002  57.4307537
  69.8728609  17.7862811  61.8261290  70.4951811  17.6906347  62.5471020
  70.0284863  17.0212317  61.2723160  99.4297886  32.2349167  93.1490421
  99.3098354  33.0494380  92.6607895 100.2517700  31.8748498  92.8159809
  61.9012928  91.3196945  45.1629925  61.0541630  91.3460255  45.6078720
  62.2912312  92.1758652  45.3394938 113.9041805  35.9695125  77.1557713
 113.1969070  36.5682793  77.3955154 114.3693352  35.8074617  77.9764986
   8.4297085  17.3202026  62.6287746   7.6562989  17.1143162  62.1037197
   9.0845847  17.6022637  61.9901752  38.5707188 100.1293468  29.7858596
  38.9532304 101.0016155  29.6906734  37.6745629 100.2916431  30.0804663
 105.8956432  26.8744755  62.1060133 106.0592651  27.3430347  62.9244947
 104.9517345  26.7155075  62.1056032  74.6665192  67.1743393  28.1900692
  74.6866322  66.7664337  29.0557718  75.4413986  67.7360058  28.1718898
  76.1429262  86.2157345  58.6121845  76.0710478  85.6711292  59.3960667
  76.6971254  86.9488430  58.8798618  59.9056482  17.6996791  54.8230171
  60.6512880  17.1238244  54.9922705  59.6770477  17.5330281  53.9085770
 108.8037109 107.0281315  15.7271218 109.7297192 107.2032547  15.8946514
 108.3463287 107.4319267  16.4646769 111.1388588  26.0744500  39.3267894
 110.6694412  25.9745526  40.1549816 111.0041142  26.9905138  39.0840936
  57.7907610  10.2217340  33.2828569  57.3702145  10.5404866  34.0814614
  58.1515646   9.3691516  33.5260773  23.3353806  24.3857718  13.5114896
  23.7974381  23.7429476  14.0495539  22.4141741  24.1337204  13.5753584
   7.0625335  14.2705262  22.0707583   7.2596830  13.8886595  21.2154555
   7.3723817  15.1739335  22.0068812   5.4347897   5.8480483   8.3728981
   5.3961676   6.0140669   7.4309969   6.2374121   5.3407311   8.4939700
 101.4354706 105.2744579  46.2234831 100.7236290 105.4969215  46.8235111
 101.9851303 104.6670818  46.7186689  23.3871818  24.9769115  56.9169903
  22.9219222  24.7751212  57.7288055  23.2361293  25.9122109  56.7805004
   8.8947719  95.8337593  30.2189136   8.8705540  95.7017708  29.2711663
   8.2409090  96.5133286  30.3828764  12.3716843 105.3624344  36.8276525
  11.9933617 106.0790062  37.3371840  13.2960105 105.5943584  36.7378449
  54.4175959  61.5001535   2.2637154  55.0695038  60.8657169   2.5616091
  53.5862827  61.1650324   2.5996321  90.6803894  85.1528931  91.1207294
  90.9028339  84.2720985  91.4223003  91.0370064  85.7334423  91.7930603
  35.6078410 102.1472073  48.6566019  34.9422264 102.5594234  49.2072964
  36.3568544 102.7415752  48.7006998  36.1539960  18.7033522  18.2915616
  36.0032320  18.0776834  19.0001106  35.3462839  19.2151511  18.2480669
  72.2110796  17.9440689  23.5441065  71.8018532  17.1034086  23.3390236
  71.5308952  18.5923862  23.3617043   9.2345327  31.8174052  36.2961102
  10.0917172  32.2433043  36.3048530   9.3120497  31.1368155  35.6275153
  86.1407471  67.5419378  90.4800415  86.1232185  68.0067873  91.3166046
  85.6116486  66.7585278  90.6302166  27.9882860  51.1707211  28.3255887
  28.1263304  51.1948776  29.2724752  28.6535406  51.7608404  27.9714274
  36.2903881  11.8443418  66.7012262  36.9975567  12.3627317  66.3172817
  35.4961276  12.3422801  66.5077353   0.3547926  37.4118161  33.7415552
  -0.0326136  37.7995253  32.9568076   0.8624195  36.6685271  33.4158754
  44.4732237  22.1672058  78.0358028  43.6902046  22.6643229  78.2724237
  44.1676378  21.2638283  77.9535818  31.6277122  20.9185243  24.3770862
  32.2800183  21.4083576  24.8778772  31.4590621  20.1369953  24.9033952
  56.5422440  26.8592525  81.9326019  56.7627954  26.7341614  81.0095978
  57.1109962  27.5734663  82.2200966  30.4448462  42.4588966  26.0836601
  30.2889991  43.1800079  25.4737926  29.5852351  42.0545483  26.2011456
  79.3646622  98.5213852  19.4056678  80.2086735  98.6442852  19.8401511
  79.2856979  97.5733662  19.2995727  22.9937649  35.2908754  30.2505541
  23.6119366  36.0167098  30.1653457  23.5431051  34.5070028  30.2492404
  36.3301182   2.4026456  29.3551779  35.7212877   2.0198147  29.9868417
  35.8353376   2.4375929  28.5365176  67.9789925  34.7148681  39.2425585
  67.9680729  35.3523183  38.5285783  68.8057280  34.2453194  39.1317964
  17.4458551  35.0693464  22.8654981  16.7607796  34.5538402  22.4398708
  18.2330346  34.8935270  22.3500657  49.7953367  16.3394272  17.2777319
  49.4421959  17.2215986  17.1624136  49.0352440  15.8054817  17.5088012
  30.7253528  28.0840254  51.3273525  30.1239276  28.6158347  50.8061028
  31.5274048  28.6044884  51.3727665   9.9476928  38.0183387  31.8639493
  10.7160032  38.5286856  32.1198368  10.1622677  37.6824236  30.9936905
  41.0897875  71.9845915   9.1800690  41.5322447  71.7125130   9.9840808
  41.7019081  71.7558050   8.4806430  33.5358953  31.7245674  14.5429289
  34.4237471  32.0571709  14.4112945  33.2228875  31.5219164  13.6613452
  19.6843135  35.7074904  36.0318637  19.1157472  35.5361843  36.7826104
  19.4375670  35.0434732  35.3881025  58.8427210   9.9911731  24.6692276
  58.1375694  10.4344749  25.1409006  58.3951330   9.4769579  23.9973068
  23.7355781  32.1672225  19.7562730  23.7438393  32.1343422  18.7996745
  24.1412640  31.3438416  20.0277400  53.7809658  77.8113747  71.2092876
  53.5502291  77.7595854  72.1368170  53.0727720  77.3498631  70.7601738
  52.4071169  23.4228039  10.7158184  53.2369852  23.0693364  11.0361481
  52.3506498  23.1181002   9.8101705   1.5846676  43.5791922  78.4815645
   2.1952978  42.8580952  78.6344767   1.8888058  44.2775869  79.0611982
  79.0929127  45.0546932  20.0342369  79.9302864  44.6470976  20.2553773
  78.6255789  44.3856668  19.5340037   3.3643186  41.6931820  42.6061058
   3.0378744  42.5490332  42.3282862   4.1008997  41.8937111  43.1835699
   7.2758591  33.9497042  14.7095788   6.7007875  34.3720412  15.3476655
   7.0180535  33.0280590  14.7279572  94.5619488 104.6353436  17.4154127
  94.2097569 103.9104652  16.8989396  93.7940025 105.1541805  17.6547909
  26.7839336  39.2458844  18.1106722  26.0259986  39.2191386  18.6946702
  27.1735263  38.3746219  18.1838274   7.3998398  31.6854239  53.7444162
   7.9159927  31.8984652  54.5218658   7.4961895  30.7382774  53.6451006
  24.3108320  20.1185203  60.0108814  24.8206282  20.9283495  60.0336409
  24.6203709  19.6625578  59.2282486   6.4903361  17.9701829  31.6306782
   5.9703213  17.1891212  31.4415765   5.9173101  18.5144734  32.1706963
  49.6243906  31.5849900  35.9375358  49.0248680  32.3297620  35.9835982
  49.3945885  31.0453963  36.6940165  11.4736807  21.4088035   8.4628141
  11.0865188  21.0938573   7.6460242  10.7237256  21.5864944   9.0304643
   1.8828629  59.5083237  19.7977984   1.2812412  59.9292898  20.4118609
   1.8698168  60.0726795  19.0247750  31.2182474  24.9515080  41.1319399
  30.7024407  25.0395274  41.9334555  31.9922495  25.4936218  41.2844753
  14.2026687  42.7312422  18.6047542  13.3891141  42.8586483  19.0927386
  14.2441905  43.4792042  18.0088842  37.9956865  20.6339312  14.7330689
  37.6635647  21.5249538  14.6234870  37.9512024  20.2522326  13.8563931
  11.2011945  56.7944956  35.8571649  11.6084647  57.1479940  35.0663400
  10.3034878  56.5916586  35.5940819  46.5421200  15.7544434  65.4109907
  46.4118958  14.8064029  65.4332256  47.4650288  15.8641267  65.1819992
  31.2699294  48.9571762  33.5265970  30.4593134  48.9413214  34.0354037
  31.2439346  48.1520748  33.0095172  10.9346104  88.5679150   2.5096786
  11.8885088  88.5123634   2.4529025  10.6267548  87.7113533   2.2134477
  51.0104847  24.8225284  24.9028397  51.2260914  25.5835176  25.4419494
  51.6882324  24.8079848  24.2270589  27.7395225  22.1544933  12.5975204
  27.8703141  22.7823591  13.3080900  27.2314429  21.4466667  12.9938400
  90.8049774  92.7816772  31.6390586  91.5619564  92.3307514  32.0130587
  91.0569477  93.7050724  31.6293883  43.4936953  51.9118214   9.7915989
  43.9426231  51.2642527   9.2481363  43.7613583  51.7007589  10.6860483
  27.9616642  16.7086077  14.3375504  27.4408984  16.9258428  15.1107526
  28.6920118  16.1920190  14.6780837  38.5283470  37.2334313  46.4340258
  38.5300756  36.2961507  46.6282845  39.3428946  37.3798561  45.9530878
  45.0428820  45.9342146  22.3816323  45.5026960  45.7294607  21.5674591
  45.5386877  45.4741430  23.0589366  37.9751587   0.9003455  41.1989164
  37.6220798   0.2782080  40.5629063  38.4525871   0.3569801  41.8258524
  38.9505863  96.1722279   5.9502941  39.1280818  95.5012035   5.2911699
  39.5288324  96.8978596   5.7150954  86.1942577  62.3799086  86.0654736
  85.3184414  62.3586369  85.6798172  86.0405350  62.5021696  87.0023060
 112.0007420  91.1571789  33.0901098 112.3021698  91.1520576  32.1816254
 111.5448570  91.9933033  33.1864977  37.0511317   3.5336116  54.0944576
  37.1295810   4.4504687  53.8309240  37.7391052   3.0837274  53.6040211
   5.4336315  42.7406073  44.6709108   5.8009380  43.3579397  45.3035355
   5.8595604  41.9077778  44.8739147  12.8982437  20.3301573  25.9232044
  12.4778914  19.4912660  26.1124086  13.6620140  20.1012826  25.3935766
  39.2440653  56.4570284   3.1657559  38.8149405  56.2243557   2.3423801
  39.8154831  55.7131863   3.3565822  41.9825792  18.9453435  44.6371031
  42.3409557  19.0030956  43.7514019  41.0357189  18.8879299  44.5090866
  26.8281317  10.1101458  26.0890174  27.4898720  10.4098034  25.4656887
  26.6777372   9.1938388  25.8566523  35.2070427  46.1946392  29.9455452
  34.7442603  45.3836107  30.1560140  35.9819198  46.1809587  30.5073380
  55.5475378  34.9865389  61.4981413  56.3810110  34.5385480  61.3536978
  55.4531574  35.5663633  60.7424116   9.2482960  29.0615296  64.0280008
   9.2876452  28.4024930  64.7210741   8.3452207  29.3781137  64.0495205
 111.9874477 100.4899406   4.3764642 112.4283409 100.0748253   3.6351636
 111.0728836 100.2200603   4.2929190   4.2759326 103.3770370  50.5453253
   3.3305657 103.5215855  50.5050707   4.6532097 104.2567253  50.5390453
  40.4927254  32.0413733   8.7981325  39.8895121  31.4622903   8.3322680
  40.4087019  31.7857885   9.7167444  10.1017082 105.3840733  26.8976545
   9.1578317 105.4846191  27.0210218  10.2432549 105.5712986  25.9696770
  43.6278963  39.6933126  40.7534313  44.5760298  39.5637560  40.7755518
  43.3585882  39.3468094  39.9027610  36.5471625  37.6973319  23.2070899
  36.8037200  38.5658360  22.8970790  36.4694428  37.1720409  22.4106836
  21.3941360  33.2063580  20.9655595  21.7017269  32.8251147  21.7879176
  21.8826079  32.7394414  20.2876091  61.1452675  18.1839144  19.7070873
  61.3933372  18.3657086  20.6135345  61.4835024  18.9300251  19.2119622
  23.5675430  19.5424652  24.5106196  22.7327490  19.3189287  24.0990567
  24.0544224  18.7185168  24.5276308  62.7258873  43.3948612  35.2416277
  62.9333067  42.4838924  35.0334311  63.4613657  43.6914873  35.7776475
  25.4022288  14.6315920  18.0738699  25.3439379  13.9559448  18.7493956
  26.2556028  14.4881928  17.6647019  39.1601920  35.2123451  48.3198452
  38.6509562  34.4065785  48.4073257  39.3986869  35.4436064  49.2175484
  58.6223793  18.3045948  78.2297516  57.9797983  18.3168435  78.9390945
  59.4671869  18.3967483  78.6702538  31.9038367 106.9448280  33.7058473
  31.1645722 107.3884392  34.1216946  32.2631383 107.5938320  33.1009364
  27.9680490  36.6312027  18.4944761  27.7116609  36.1483264  19.2801774
  27.4089479  36.2773728  17.8027821  28.5780549  15.8150136  43.2590199
  29.4650578  15.4837990  43.3995676  28.0134082  15.0552034  43.4007788
  62.0235443  63.2289982   7.2217453  61.8343782  64.1665459   7.2598833
  61.2905693  62.8179312   7.6800060  38.9457893  26.8932724  17.2343397
  39.2791510  26.0365868  16.9675303  39.4671679  27.1243429  18.0031061
  76.1617470  39.6930051  86.9603157  75.3525448  39.1864347  87.0296383
  76.7685795  39.2582059  87.5594234  47.7620077  71.9654560  81.6241169
  48.6924887  71.8805218  81.8320179  47.5337934  72.8516626  81.9048119
  45.8522463  11.7653799  47.4181700  46.6793394  11.6912961  47.8942585
  45.2169609  12.0336068  48.0820179  44.2416573 106.3672447  87.2491932
  43.3340216 106.0887909  87.1271420  44.6746349 106.1399269  86.4263439
  33.8472748  28.2913923   8.5300583  33.2254481  27.8806996   9.1308045
  34.0475941  29.1361022   8.9332545  19.7337759  56.7519808  32.6038003
  19.2980611  56.6712284  33.4522486  19.7243011  55.8649111  32.2442937
  68.8921165  50.8888912  43.8189840  69.3920326  51.2983608  44.5251369
  68.8786125  49.9584675  44.0433931  50.7759333  58.7565231  16.0985494
  51.0571003  59.0467548  15.2308273  51.4518023  58.1375170  16.3747144
  69.1772795  48.4034681  37.1454644  69.6440125  47.8117514  37.7355981
  68.3394575  48.5633373  37.5798988  46.9446564   6.4394116  10.8988369
  46.2695885   6.8934149  10.3944552  46.7237043   6.6207844  11.8123555
  65.0806141  96.0186672  64.3248272  65.0959492  95.0682354  64.2122030
  64.3349600  96.3100338  63.8001013  64.9801970  37.8727555   6.2083107
  64.6759796  37.3186207   6.9270706  65.5796337  38.4939027   6.6219366
  96.3104534 105.1302052  78.0186796  96.4036751 104.3278503  77.5051022
  97.1799946 105.2792645  78.3900499  14.2325664  74.4824648  21.4045763
  13.6796498  75.2534008  21.2773943  14.2591965  74.3607521  22.3536325
  28.7481952  41.6597271  21.6938782  29.2635918  41.6741753  22.5003457
  29.0345740  40.8666706  21.2407947  67.2287607  23.6829686  40.4394341
  67.8834581  23.1627584  39.9736214  67.4293137  23.5469031  41.3654423
  50.6684208  45.8782005   9.4484901  50.0216103  45.4951143   8.8559425
  51.1788559  46.4698887   8.8956863 102.4511433  44.0284395  11.7583239
 103.1973743  43.5045052  11.4670181 101.7247200  43.7380505  11.2067664
  89.2685795  36.8828511  15.0781059  89.5086765  37.8049302  14.9867046
  89.6505070  36.4586020  14.3097460  31.1925793   8.3036715  35.8581853
  31.1307573   8.2965368  36.8133616  31.4840698   9.1898090  35.6436515
  59.3712330  69.4935989  86.7034435  58.9257812  69.6232843  87.5406933
  60.2428675  69.8664474  86.8356037  64.6462297  26.9541192   3.3765221
  64.2582941  26.2181926   3.8499647  65.5715322  26.9350576   3.6208349
  68.7123060  15.3643429  17.5475967  68.4384346  14.4613552  17.7083433
  67.9225922  15.8008945  17.2282124  30.7477093  44.4140196  10.9667444
  30.5654788  43.7680960  10.2842426  31.1817479  45.1325321  10.5067647
  21.6314244  37.0087790  27.1239281  22.3951340  36.4995933  27.3954177
  21.4629340  37.5982571  27.8590202  71.8875694  52.1306992  38.8109684
  71.6685295  53.0622673  38.7900853  71.0990715  51.7067909  39.1497993
  20.6631589  24.9307728  45.0257826  20.7318020  24.3776584  45.8039761
  19.8602569  25.4343438  45.1599216   9.2216498  24.6616149  85.2560902
  10.0365198  24.5542002  84.7655010   9.4918644  24.6521139  86.1743069
  92.2773170  90.1126862  83.3138371  92.6006985  91.0136032  83.3142376
  91.5039921  90.1360512  82.7502251  64.5471716  58.5126305   9.6384001
  64.7261906  59.2207432   9.0197271  63.6279297  58.2911539   9.4894862
  32.7373171  40.5271578  30.2156425  33.6704659  40.3140354  30.2219224
  32.5693917  40.8414412  29.3272400  11.5579116  32.6925540  46.1345339
  11.1330616  32.1308255  45.4863119  10.8655703  32.9001713  46.7620611
  39.9875140  78.0243158  73.2335281  40.7961893  78.4847355  73.0092812
  39.9638247  77.2769356  72.6359606  13.2157218  38.3136702  35.6102443
  12.6342988  38.7049127  34.9582410  13.6605990  39.0595436  36.0127234
  72.7910900  13.5090053  30.1430750  73.5848141  14.0437424  30.1600933
  72.2313833  13.9317811  29.4917488 103.2640934  45.3860760  36.7688704
 104.0899563  44.9297142  36.6078854 102.7724648  45.2863312  35.9536505
  83.2760811  82.7043343  84.8920441  82.9418755  81.8324661  85.1027203
  84.0142822  82.8284740  85.4886055   7.4202281  47.3409653  55.7831526
   6.7300713  47.4701929  55.1326036   7.0072156  46.8171930  56.4696741
  28.2275891  30.0354505  24.8860812  28.6054230  29.2554116  24.4798636
  27.2857094  29.9500132  24.7384501  79.2451477  89.5287228  77.8064966
  79.4971657  88.6303425  77.5928879  80.0729465  89.9719620  77.9922962
  28.7644482  21.3983822  46.2617159  28.1472230  21.7225170  45.6058216
  29.1201186  22.1890926  46.6673136  75.3709555  28.7570047  52.1576166
  76.1385775  29.2930102  52.3568344  75.6166172  27.8744030  52.4349165
  60.4136419  46.7193365   5.7140547  60.6895685  46.8201256   4.8030454
  59.9718714  45.8705139   5.7380003  43.8573980  32.7743030  14.7900009
  43.0751991  32.2408676  14.6491599  44.2194700  32.4549365  15.6165242
  16.4676499   9.5089501  59.4509411  17.2825885   9.0394795  59.2728853
  16.4801323  10.2491117  58.8441181  79.6894121  12.6138210  17.3308730
  79.2665100  13.3240867  17.8134799  80.0415897  12.0389962  18.0104160
  47.0598602  24.3444037  58.0196905  46.9902372  23.6570358  58.6821938
  46.2491798  24.8455620  58.1084108  96.2828732 102.1783638  79.9863672
  96.2393379 101.8578720  80.8872700  95.4111290 102.5354862  79.8168039
  47.7817774  91.4989567  77.3511171  46.8688059  91.5487766  77.6343679
  47.9056311  90.5830765  77.1020031  97.3567009  96.5729809  74.0006256
  98.3056068  96.6907310  74.0446663  97.2289944  95.6272697  74.0751839
   1.2503643  94.7721481   9.6159327   1.9696355  94.8165417  10.2459407
   0.5533069  95.2958870  10.0109482  57.5070429  38.7455368   8.5615987
  58.3542585  39.0111446   8.9192426  56.9697571  39.5364809   8.6059302
  34.6786451  60.3097916  15.2667153  33.7444949  60.5133629  15.2203071
  34.8666310  59.8586035  14.4437194  35.5278587 100.4047203  65.3945112
  36.2754560 100.0838852  65.8988905  35.9176111 100.9360981  64.7002792
  86.5192032  99.1650486  36.1817789  86.4484406  99.1796589  37.1362472
  87.0677948  98.4034824  35.9939075  60.6179285  17.2305512  48.8136768
  61.1778069  16.5580559  49.2016459  60.8573341  17.2361159  47.8869152
  66.4099550  75.3026009  79.0782785  66.3483906  76.2321091  79.2984056
  65.6691647  74.8996449  79.5311451  56.9768047  50.4842043  21.1258984
  57.5538921  51.0609579  21.6264558  57.1964598  50.6608295  20.2111363
  41.7273426  36.9673467  36.0771346  40.9326887  37.0087171  35.5451131
  42.4422312  37.0611191  35.4475570  88.5071182  41.4752150  14.0776801
  87.8271389  41.1287260  13.4999216  88.9497185  42.1426105  13.5533464
 113.4786129   7.5398088  56.9950962 113.2739639   7.7432251  57.9077721
 112.6395130   7.2824299  56.6131163   2.2507994  62.2905827  18.0967939
   1.9898269  62.8209400  18.8496888   3.2056448  62.3549700  18.0779076
  69.5409060  57.8046036  38.2758403  69.2848873  58.5866594  37.7868891
  70.1368380  57.3394489  37.6886988  73.9159536  27.8069830  12.1281195
  73.5895491  28.6960793  11.9895554  74.8672485  27.9047871  12.1693265
   3.7696698  13.2899451  32.2385025   4.6288344  12.8718162  32.1816087
   3.8887239  13.9965200  32.8731751  59.2205715  52.7678823   3.2657373
  58.2715750  52.8911495   3.2447252  59.5741796  53.6499214   3.3806264
  78.8345194  89.6663857  84.3537045  78.5931921  88.8636780  84.8159313
  78.0577755  90.2221394  84.4173145  65.9510708  70.7648659  79.7183037
  65.9474373  70.6744671  80.6712151  66.0523176  69.8702621  79.3932343
  54.0393543  33.9015913  13.7775958  54.1988325  33.1159377  13.2545781
  53.0952835  33.8966441  13.9355016  98.7389660  14.9273336  87.4658298
  98.9294338  14.9637699  86.5284729  97.9611206  15.4746568  87.5736332
  38.9959264  20.2583504  39.9280190  38.3991575  19.5504582  39.6851468
  38.5347629  21.0579348  39.6745944   4.6751574 102.2088432  33.8903999
   4.5367947 103.0065250  33.3797145   5.1002902 101.6051769  33.2812357
  35.3658175  15.9956849   3.3031276  35.3452420  16.9487369   3.3897403
  34.4588470  15.7229424   3.4418741  36.8914175  45.5484724  32.2751665
  36.3492894  45.2169800  32.9910159  37.4915862  46.1648321  32.6948476
  83.6017609  51.6445923   3.3845699  83.9811993  50.7966185   3.1539056
  82.7047539  51.6037750   3.0529889  58.0357265  62.9961061   4.7617939
  57.1084595  63.1104946   4.5536605  58.2428932  63.7281561   5.3426689
  56.9898224  85.3112984  81.8303108  56.5469503  84.7554588  82.4715042
  57.4690199  85.9503746  82.3577404  54.2630053   8.0575395   5.5564791
  53.6423540   7.9569876   6.2782234  53.9813471   7.4133933   4.9068826
 113.2683849 100.7187176  27.6847124 113.8153076 100.4256439  28.4135556
 113.6728668 100.3286743  26.9097972  39.1638875  52.3617125   9.6059364
  38.6397934  51.9973326  10.3192282  38.6163163  53.0541706   9.2359298
  37.4829388  45.2715731  26.4979100  38.0182672  44.4814157  26.4250469
  37.6937580  45.7769442  25.7128072 111.4669132  42.5251150   2.0496798
 110.9839916  43.2301331   2.4809229 111.1868382  42.5673628   1.1353458
  45.1343966  31.3929343  30.1916599  44.4286108  32.0362186  30.1262569
  45.9272432  31.8846607  29.9775767  67.8652048  75.5866861  29.8919940
  67.4485397  74.7335863  29.7701597  68.8009310  75.4130316  29.7895527
  73.5753679  23.7771940  15.8106434  72.9134846  23.2458925  15.3680813
  73.2500887  23.8678646  16.7063022  10.4459226  31.7240739  14.5655930
   9.6583605  31.5163708  14.0627646  10.1313627  31.8551469  15.4600787
  38.2451773   9.1788763   2.9448983  37.4793959   9.4615477   2.4449891
  38.4174705   8.2892358   2.6365364   7.8486335  76.3640547  24.2115688
   8.0722368  76.1267424  25.1115227   8.3736914  75.7740545  23.6707854
  99.7862148  84.7033501  70.8129072 100.0125980  84.4757175  69.9111509
  98.9933586  85.2338409  70.7341909  46.8184280  22.8483009  28.1968880
  46.1611080  22.2794700  27.7961516  47.5616693  22.8168297  27.5945306
  72.7554560  22.3686337  49.4881821  72.8817511  23.2454634  49.1256237
  72.2099018  22.5059628  50.2626085  51.2492418  38.9390373  44.2077875
  51.6108513  38.6516237  43.3694172  50.7351017  38.1925368  44.5154047
  89.4898510  20.1410604  12.7654552  90.1890373  19.6394432  12.3462296
  89.8390675  21.0298562  12.8312588  64.4955111  79.2127800  79.6114445
  64.1858530  79.3013525  78.7100601  65.4381466  79.3701077  79.5574188
  66.3481331  31.5762830  91.3149643  67.2573757  31.2771034  91.3126659
  66.3988876  32.4987555  91.0645676  52.4342394  22.1407962  21.0112286
  52.7147102  21.3746381  20.5106544  51.5948486  21.8835497  21.3926482
  46.5847206  92.1172714  89.5975018  46.4405251  92.4676514  90.4765129
  45.7735634  92.3094082  89.1270351  61.5054846  28.2159138  39.0883636
  61.0312653  28.9484382  38.6949754  61.3245392  27.4751091  38.5098314
  70.7106543  83.6012650  56.5196371  71.1680317  82.7957630  56.7609024
  71.0448027  83.8146687  55.6484127  29.9604154  74.0854263  12.5542390
  29.8167348  73.1948185  12.2342217  29.2016029  74.5777702  12.2411382
  60.2997875  61.1626673   4.3589568  59.7440863  61.7685175   4.8492360
  59.7028303  60.7317114   3.7472770  38.3894682  23.7163377  69.8362350
  38.7769723  24.3064404  70.4826450  38.4550261  24.1919088  69.0081215
  27.0634437  48.4321928  73.7327862  27.2495317  48.1377554  74.6243620
  26.4020920  47.8194141  73.4113121  57.6327801  14.2161644   2.0723908
  57.2726536  14.0866661   2.9497573  57.9288292  13.3462989   1.8042102
  66.0994005  25.0461149  20.8847332  65.8935833  25.5631828  21.6635227
  65.3277636  25.1374936  20.3257561  99.8176289  18.1974530  87.8794098
  99.5724106  17.5159836  87.2535515 100.7141495  17.9782009  88.1332016
  36.1375117  19.6581686  34.8326039  36.1577940  19.7592092  33.8809681
  37.0238209  19.8823440  35.1162100  41.4037228  41.7609644  31.8439364
  41.1535883  42.6035976  31.4649439  41.8514204  41.9883204  32.6588678
  39.6408129  77.9831982  29.0461731  39.9889255  77.1258354  28.8012791
  40.3104830  78.6043024  28.7597990  25.8372879  10.2498090  48.5328579
  25.7527804   9.8802096  49.4117689  26.7148638   9.9940377  48.2488298
  35.9450388   9.6485406  12.6652384  35.5025387   8.8066840  12.7734208
  36.1746192   9.6808517  11.7365396  37.9380584  37.4679279  26.8648672
  38.8245821  37.2808313  26.5561581  37.8399730  38.4134698  26.7527747
  49.7207785  20.8159852  29.1608763  49.0977478  20.3209376  28.6289120
  50.3259468  21.1995411  28.5261416  17.2023189  15.2431440  18.9173007
  17.9605448  14.7012079  18.6990535  16.7446232  15.3610313  18.0849266
  44.7033310  45.1502943  37.4161959  44.4325066  45.8310127  38.0322385
  44.7321463  44.3501902  37.9408216  42.8578615  70.0167227   4.2047948
  43.4912920  69.3099356   4.3290922  43.0577993  70.3676653   3.3369821
  52.5713015  64.2277336  84.5541573  52.0902348  64.6685743  85.2544975
  52.1896744  63.3506966  84.5167255  37.1510291  43.9003563  30.3438210
  37.9421616  44.1826248  29.8848391  37.0797324  44.4981050  31.0880303
  33.7799835  48.9290714   1.9867982  34.5964551  48.6399126   2.3942222
  33.2819176  48.1231546   1.8502234  43.1362104  44.4329596   5.0324517
  43.2800055  43.4931231   5.1431638  42.1955156  44.5487404   5.1663095
  75.4684401  94.5929813  70.1494789  74.6004534  94.5671082  69.7467899
  75.3018188  94.8250961  71.0630417  74.0193415  62.7779913  86.6893578
  74.0981865  62.9820061  85.7574844  73.4276772  62.0262098  86.7207336
  69.3650436  45.4582262  19.6726704  69.2862129  44.9311113  18.8775814
  70.0688648  46.0778379  19.4804525  91.0015583  78.6421967  70.9064817
  90.7317829  78.0121136  70.2383184  91.4589310  79.3272638  70.4189110
  57.4539804  99.1240311  88.3430958  57.8832531  99.9732971  88.4465218
  57.1483326  99.1190434  87.4360180  12.4428034  65.1143551  20.4723811
  12.0759201  65.6695461  19.7843456  11.7160857  64.9731398  21.0791516
  58.1736517  27.4177718  43.1631422  57.4545622  27.6749778  42.5860929
  58.9595032  27.5183249  42.6259708  86.8659019  94.2028522  80.7914925
  86.7883396  94.9844933  81.3385391  86.0162354  94.1294193  80.3568459
  17.5200093  17.4343777  42.4158382  17.0392561  18.0671966  41.8823147
  18.3048618  17.9049766  42.6965094  65.1510334  73.3962202   6.7757291
  65.1823568  72.9557848   5.9264547  65.9429693  73.1034803   7.2266990
  59.3535948  46.4460659  11.0909843  59.4648504  46.9776440  11.8791974
  59.4938326  45.5466270  11.3869154  98.4354401 102.5994968  92.0950794
  97.8442860 103.2394218  91.6985226  99.2462921 102.6789379  91.5926456
  48.2151222  39.5803380  39.5311189  48.3888292  39.1958356  40.3903151
  48.0617523  38.8285279  38.9588475  40.6312084  44.8115444  46.4141464
  40.7294035  44.0925264  45.7899570  40.1699448  44.4224024  47.1571398
  42.0078897  12.0137632  43.6008835  41.8746614  11.2214792  44.1212368
  41.8800306  11.7301035  42.6956654  22.0119357  41.8162632  20.5562544
  21.7624736  40.8921623  20.5627942  21.2215090  42.2796869  20.8331871
  80.2272320  22.6087117  12.0508921  80.8364487  23.3418632  12.1378875
  79.3910313  23.0173850  11.8273032  38.6838746  45.9437990  11.9558871
  38.8962722  45.3963757  11.1999476  38.9336634  45.4140425  12.7129829
  65.3706121  17.4484313  32.9280615  66.2718296  17.3024797  32.6404214
  64.9561691  17.9041040  32.1953726  16.2140095  36.5465641  13.2587254
  16.2389636  35.6183529  13.0262697  15.3438246  36.6756773  13.6360049
   6.4650434  27.2677898   4.0693840   6.5035468  26.3167739   4.1709524
   7.2315979  27.5904965   4.5431840  61.9429064  40.4778719  31.8609262
  61.2016249  39.9443698  32.1474624  62.0554495  40.2549314  30.9368777
  43.5932922  41.5735006   5.2932936  42.6368237  41.6012955   5.2682823
  43.8236856  40.7958508   4.7849554  43.0551100  36.4433408  40.7916355
  43.3642149  37.3363495  40.9440088  42.3555708  36.5390348  40.1453161
  46.5255833  16.8030488  37.7850723  46.8391943  16.6196799  38.6706543
  46.9128847  16.1132288  37.2462034 108.5950470  67.5565815  65.3179884
 107.8226280  67.4419832  64.7643948 109.1453743  68.1742001  64.8364019
  83.0272961  96.1023331  73.2902288  82.9149914  95.1660061  73.1261444
  82.2539043  96.3512516  73.7963295  19.0772867  96.0115623  82.3839664
  19.5082724  95.1680279  82.2463799  18.4061193  95.8329964  83.0426598
  98.2681370  80.6095028  75.4017591  97.8196335  81.0984230  74.7118092
  99.0654945  80.2833080  74.9845648  28.5349226  25.2833271  49.5697403
  27.8411651  24.6635294  49.7950888  28.8248491  25.0120282  48.6987782
  75.7482386  48.5487556  92.0616913  76.3575125  47.8636217  92.3366547
  75.2812290  48.1693125  91.3172722  34.6998048  17.6080894  14.0346241
  33.8407373  17.6298892  14.4562376  35.0180483  18.5089660  14.0927148
  96.7203808  80.0788021  68.7595510  96.9175148  80.7883453  69.3710375
  97.4048328  79.4287539  68.9182568  71.6984940  51.1969090  32.4584866
  70.7569885  51.3560963  32.5252485  71.8100548  50.7735109  31.6072965
 102.4569416  97.0606327  28.3657837 103.0682564  96.8568230  29.0735865
 102.7657413  97.8963375  28.0158114  56.6794157  44.2846489  17.1251988
  56.1072302  45.0518370  17.1092939  56.6531944  43.9850998  18.0339420
  75.7459021  18.8107300  47.8579473  75.3146601  18.1233442  48.3656549
  75.6544971  19.5980167  48.3946562  72.3229122  18.4674120  27.5494885
  72.9659700  18.7369728  26.8937111  72.7818298  17.8178310  28.0820966
  78.7317801 104.6060276  70.9371614  79.1323805 103.8703632  70.4739666
  79.3622255 104.8299503  71.6217279 104.3795395  17.9027569  17.7554774
 104.2513847  17.0179248  17.4136007 104.9059010  17.7803588  18.5455382
  29.2488408  39.9207687  46.5592432  28.3257890  39.6698189  46.5943670
  29.2651153  40.6959152  45.9978914  16.6194713  77.9216766  71.8659353
  15.9439528  77.3393583  71.5183640  16.9722164  78.3662605  71.0951281
  41.7979527  27.0440197  26.0386920  42.0803213  26.4673328  26.7485738
  42.4450159  27.7493477  26.0313416   4.2709967  52.7356339  56.3797569
   4.1239974  53.2726240  55.6011295   4.3902281  51.8487263  56.0400248
 108.4318447  89.2126465  92.6874065 107.8719425  88.8383007  92.0072460
 107.8680706  89.8359871  93.1454849  69.7579956  52.1120262  28.3954382
  70.4283953  51.5592098  27.9939508  69.3727255  52.5919580  27.6623178
  48.6842537  33.4251165  32.6207709  48.0258417  33.4063339  33.3152986
  49.5022202  33.6343265  33.0717659  38.3212471   2.2383578  19.9956250
  37.5728297   1.7215717  20.2940130  38.4155607   2.9259938  20.6547856
  79.5610094  28.5813999  77.1914291  80.1786804  29.2054081  76.8101978
  79.8827171  28.4394693  78.0817080  39.1235042  40.0659323  32.5231171
  38.6328149  39.6780992  31.7985225  39.8101449  40.5806351  32.0990396
  47.3361349  89.9816990  80.6862450  47.8945160  89.4446373  81.2483883
  47.9480600  90.5250072  80.1896477  62.4207735  82.5924778  92.8963470
  61.9574070  81.7804050  93.1014347  61.9729090  82.9349995  92.1228313
  67.7968884  14.8043966   8.5711592  67.0117044  14.5527720   9.0573680
  67.5079250  15.5178559   8.0022073  54.0056324  39.3107700  18.4524357
  54.4307995  38.8094616  19.1482472  54.3252468  38.9142489  17.6419735
  52.7898407  12.5682473   6.6187072  52.6436329  12.1574783   7.4708366
  53.6443233  12.2404623   6.3382673  34.8522139  34.7902989  21.4643812
  35.4368639  34.1880155  21.9244576  35.4073358  35.2057052  20.8044481
  55.7853746  10.3670323  48.8276005  55.3118515  10.1413083  48.0269384
  56.1692905   9.5403671  49.1199446   8.0453411 107.5288682  14.6147549
   8.1053272 106.9097614  15.3423119   8.0087963 106.9772963  13.8333046
  40.0627518  74.9014616  12.4698412  40.6229496  75.4869223  12.9793954
  39.1793251  75.0699425  12.7975631  74.2150402  20.0237060   9.6458024
  73.2799768  20.2168226   9.5780444  74.4717026  20.3780103  10.4971695
  36.8552923  41.4809608   3.4984109  37.5998497  41.9478178   3.1190586
  36.1868858  42.1551561   3.6205807  21.2542534   3.7692136  18.5830629
  20.9411907   2.8879660  18.7870872  21.7760420   3.6599451  17.7880597
  67.4503326  42.9428244  30.0018620  68.0964899  43.3236408  29.4071436
  67.9391241  42.2861481  30.4979396   9.4685930   0.5310017  27.1307182
   8.9063501   1.2124960  27.4990654   8.8928765   0.0335303  26.5499377
  37.1154213  31.5654135   8.1084472  37.5589275  32.1566415   7.5001860
  36.9097328  30.7918739   7.5835061  37.8661346  23.4378886  36.1289573
  37.2044420  22.9470801  35.6416154  38.6677694  22.9246759  36.0278249
  47.4545813  30.9570146  40.9774399  47.5450277  30.4428315  40.1751518
  47.8546286  30.4137611  41.6564655  60.4869127  29.1475058  52.7983236
  60.2761936  29.5663643  53.6328220  60.4720736  29.8618126  52.1613169
  36.3591528  79.1499949  19.1422987  36.3326550  78.2283878  18.8850570
  35.5608869  79.5254230  18.7707365  24.1215110  16.9347370  68.6098623
  24.4221473  17.5087500  67.9053354  23.1683874  16.9266737  68.5219908
  60.4548883  52.8828573  20.1364636  60.8011675  52.6274586  20.9915042
  60.5149841  52.0879841  19.6065676  46.7895126  42.1281672   8.6997581
  47.2620344  41.6798019   7.9983848  47.4129868  42.1616268   9.4252855
  53.4369707  65.7932520  19.3300211  52.5961542  65.3441429  19.4169462
  54.0899229  65.1001596  19.4275475 109.5968628  18.9183152  83.5841560
 109.2858410  19.4184566  84.3387127 108.9723969  19.1220319  82.8878975
 103.9093876  97.0902252  84.9057961 104.3744278  97.7334595  84.3708134
 104.5688438  96.4273262  85.1105309  67.4213552  64.1314316  27.3353410
  66.5138721  63.8274193  27.3186803  67.3550510  65.0756788  27.4775887
  71.6452980  66.6068792  10.9925675  70.8378887  66.1946249  11.2997580
  72.2263527  66.5916824  11.7530787  32.7827191  30.2785993  38.1042790
  33.7178445  30.1274586  37.9666996  32.3674011  29.9526501  37.3058462
  91.5961647 105.3158569  81.6534996  91.5139103 106.1048222  81.1177731
  92.5397873 105.1715088  81.7239666  85.7887936  44.8998642  13.2663226
  85.8253193  43.9731312  13.5031044  85.1920986  45.2873421  13.9066696
  71.8521166  38.1281996  30.1349592  71.1993408  37.4524713  30.3180122
  72.6872349  37.6604319  30.1338577  45.6679487  20.8377862  44.4973516
  45.5001068  21.1866879  45.3727531  44.8807955  21.0550666  43.9979410
  44.8700094  82.1804523  20.7029843  44.6749115  82.2682667  19.7700000
  44.0779352  82.4885750  21.1433434  51.2817860  52.0171309   9.5644993
  52.0188093  52.4631214   9.1472268  51.6662741  51.2315226   9.9533707
  11.0104561  51.3990593  22.0294046  11.5489805  51.7860746  21.3391590
  10.1340663  51.3461447  21.6481280  47.8637934   5.7672668  46.7180967
  48.4128714   5.0565398  46.3870096  48.3152342   6.0719061  47.5052643
  84.1723824  54.9329233  19.8828697  83.6447811  54.5236492  20.5686975
  84.8591995  55.4018593  20.3567958  40.2281475  43.4419584  23.3049345
  40.4521704  43.0891275  22.4437976  41.0722494  43.6497784  23.7056065
  78.2879114  38.1022239  31.8495297  78.0204964  38.3911729  32.7220130
  79.2186880  38.3199930  31.7999244  12.3541629  87.3383808  41.5517616
  12.0935166  87.0553970  40.6752825  12.2779167  88.2922459  41.5280437
  44.9998331  40.8772326  54.5176029  45.4641724  41.7106485  54.4398642
  44.5697260  40.9214354  55.3715849  68.3239317  95.4986095  10.7715619
  68.4190559  96.2173939  11.3964784  68.1185913  95.9285831   9.9413878
  73.2456970  59.6789789  35.4599047  72.4877596  60.2634239  35.4736018
  73.5061216  59.6460104  34.5394039 110.8243847  11.7102373  92.2935009
 111.4472198  11.3716125  91.6503525 110.2229309  12.2517622  91.7823887
  79.4371653  27.2990227  30.0526166  79.9554205  26.5161991  30.2392530
  80.0278568  28.0280638  30.2418685  79.7738028  45.9235144  15.2541614
  79.9262333  46.2919807  16.1243498  79.6252108  46.6854191  14.6941125
  64.6709013  69.8299599  24.8151159  64.4892454  70.7222891  25.1100469
  64.7981691  69.9113512  23.8699126  62.5565386  60.4244280  16.5235651
  61.9489098  59.7198915  16.7486167  62.2627354  61.1703062  17.0466173
   7.7138567  96.8667126   4.4093919   7.1944261  96.1761475   4.8211387
   7.7093720  97.5815964   5.0459117  87.3295784  75.3147030  59.6992922
  87.6550293  74.6451664  59.0975952  88.0717468  75.5010843  60.2743483
  39.8175788  24.8510647  13.7216842  38.8825893  24.9716377  13.5558879
  40.0395441  24.0405941  13.2633173  35.1316190  47.6395798  14.5017767
  35.6620789  48.3063650  14.0656102  34.7881866  47.1020937  13.7880564
  21.6866732  49.0709543   9.5200104  21.3184142  48.8508272  10.3756750
  22.6205206  49.1987228   9.6868551 104.1494942  17.2442436  91.3800907
 103.2864285  16.9030941  91.1456585 104.4847202  16.6235769  92.0271111
  70.4247904  39.0898323   6.5191001  69.9154520  39.5551610   5.8555669
  71.2710142  39.5370936   6.5286994  43.9909935  56.2039518  10.7155252
  43.1667948  55.7428789  10.5594850  44.4103718  56.2424231   9.8559481
  72.0408440  90.3506374   9.7418761  71.1255217  90.0721741   9.7713870
  72.5210714  89.5670700   9.4742322  52.9191351  22.0932889  24.7985411
  52.5792170  22.6836491  24.1261125  53.5470200  21.5388465  24.3353081
  52.4621487  64.7252607  12.2551203  51.7050362  64.7971249  12.8363633
  53.1906843  65.0779772  12.7660537  31.4224172  22.9174900  56.2028313
  30.9567499  23.5829544  56.7093325  31.9097781  23.4142447  55.5456066
  67.1303368  54.1411686  11.8772948  67.4597216  53.3265352  12.2569048
  66.3269329  53.8863420  11.4236033  37.0545316  37.6004887  81.1503315
  37.2661400  36.9629312  80.4684448  36.2969041  37.2270250  81.6006184
  38.1470299  41.7928934  28.8861632  37.6655984  42.3451090  29.5022082
  38.8554549  42.3517370  28.5666990  28.5558701  86.6080093  39.7042561
  28.6195946  87.3097610  40.3521109  29.4188285  86.1939621  39.7139931
  44.4203186  30.1045942   0.9389832  44.9078608  29.6665120   1.6365631
  44.5332432  29.5381570   0.1756823  66.5553522  52.3574114   3.5914153
  67.0484638  52.1426582   4.3832174  67.1233940  52.9601860   3.1115967
  41.1692286  30.5045795  26.2664390  40.6459904  30.5852985  25.4689813
  41.7626095  29.7743464  26.0906768  57.3795462  43.4214449  30.3044629
  57.7620840  42.5449657  30.3455114  57.8513002  43.9201498  30.9715247
  58.0592108  18.6684096  25.1098824  58.6087036  18.4608698  25.8656716
  57.3502350  18.0263007  25.1456785  43.8351870  49.2627525  43.6558390
  43.3306599  49.0913010  44.4510031  44.0065956  50.2041912  43.6792707
   2.1300948  97.2605228  88.3256149   1.2467993  96.8929958  88.3562946
   2.3912440  97.3333168  89.2436218  25.9862185  25.8036208  37.3942280
  25.7507372  24.9871898  36.9535232  25.2578259  25.9718204  37.9920459
  27.5582218  71.5877581  21.6034937  27.3293018  70.7089853  21.9061255
  28.4743857  71.5176105  21.3352489  36.6567659  62.6066589  13.1296790
  36.8281627  62.0347261  13.8778400  35.9367990  63.1680346  13.4173274
  73.4024858  57.6647854  17.2395146  73.2498598  58.3474684  17.8928792
  74.2868853  57.3491240  17.4250448  80.8169174  58.8190222   6.4170635
  81.4881611  58.9193964   5.7420909  80.4720783  57.9362917   6.2825131
  42.7328682  17.3192382  48.4485769  41.9536209  16.7753124  48.3338833
  42.7753878  17.4810863  49.3910360  22.7156186   9.6109349  90.3342342
  22.2388196   9.6938014  89.5083904  23.0703640  10.4853582  90.4947758
  50.4658031  49.4739723  36.6238785  49.7155380  50.0160265  36.8678164
  50.3623486  49.3312168  35.6830549  56.3299608  55.7501888  24.6275854
  55.7272816  56.4937782  24.6184230  55.8912039  55.0798082  24.1038370
  18.0347991  64.7430372   9.7495461  17.5901401  64.7592735  10.5970407
  17.5252295  64.1267347   9.2234796  34.8872590  30.7963729  60.9312105
  35.6462812  30.9586334  61.4913750  34.2783165  30.3108358  61.4876938
  95.4783058  43.1355000  20.4755044  94.8198509  42.6898146  19.9425542
  96.3072395  42.7307701  20.2199960  78.9736176  92.9413414  87.0051098
  79.3413210  93.5658550  87.6304245  79.5605087  92.9845905  86.2501812
  65.9969473  34.5174193  46.8158484  65.3271484  34.6946073  46.1553907
  66.0035324  35.3004408  47.3663664  46.3963604  74.1639519  14.4997942
  47.0741892  74.4823647  15.0959384  45.6017876  74.6218061  14.7741199
  40.3944921  62.9154301   4.4073498  40.5622911  63.3666086   5.2347028
  39.4476938  62.9843998   4.2846620  67.5718307  44.4301939  27.1598172
  68.3548260  43.9822817  27.4800229  67.8167868  44.7493267  26.2912655
  54.5485878  35.8510137  19.2823672  54.2791986  35.1843429  18.6505377
  54.1758251  35.5576015  20.1137447  36.0891485  66.0330486   2.3189837
  36.4587402  65.3038549   2.8168929  36.6965842  66.1573887   1.5897420
  65.3110695  66.4409351  11.9405174  65.6016541  66.4878511  11.0296988
  64.5556259  65.8534384  11.9209480  48.8587523  23.3778214  26.2318730
  48.2328224  24.0626049  25.9962511  49.6204138  23.5486031  25.6778574
  42.8094673  48.8832474  84.5058918  43.5491943  48.2759333  84.4914818
  42.0365763  48.3204365  84.4598007  33.3266044  31.8642354  32.3397326
  34.1244221  32.2522759  31.9803667  32.7983737  31.6478777  31.5713620
  31.7028189  22.5669146  44.2400265  31.5461493  21.9890356  44.9868488
  31.9465280  21.9763708  43.5272169  47.3384523  43.1317854  17.2964275
  47.6413393  43.0464983  18.2004273  47.0496607  44.0416145  17.2254193
 100.8237457  93.9157963  91.6445255 101.0893631  94.6530437  92.1942139
  99.9102974  94.0982246  91.4241600  10.5668962   5.3767639  88.5329247
  11.1780071   5.9446818  88.0636215  11.1183906   4.8771590  89.1349792
  79.4964027  75.3289986  27.5644064  78.7370825  74.7861290  27.7764297
  79.1224909  76.1372137  27.2133946  77.5532389  14.8681664   0.3085323
  77.7538347  15.6425214   0.8342395  77.5506973  14.1461337   0.9369387
  48.3134747  43.6991072   3.0714607  48.9172411  44.1337585   3.6737654
  47.6984453  43.2368517   3.6409295  71.9680452  44.1806936  33.6142850
  71.4094305  44.4266033  34.3516517  72.3506880  43.3422709  33.8728642
  78.9115238  28.5622406   4.4457772  78.6707020  29.1108298   3.6992604
  79.6017122  27.9903221   4.1099507  73.9953375  47.3646975  26.3156700
  73.9545584  46.4217615  26.4751935  73.2466602  47.5439739  25.7468295
  21.3734174  29.5973706  72.3368311  21.6138482  30.4043102  72.7921057
  22.1582484  29.3573451  71.8442249  38.1328535  27.3535943  38.5103679
  37.9814100  26.9478869  37.6567292  39.0857816  27.4004507  38.5876107
  74.2136049  91.5805340  67.8574800  73.5240316  91.0426903  68.2466412
  74.9168587  91.5749741  68.5068130  45.3028297  33.0650306  40.9227991
  45.8658886  32.3079848  40.7613039  44.7237539  33.0995989  40.1614141
  37.3969531  37.4574780  31.8963122  37.6227188  38.0378008  31.1693406
  38.0834174  36.7904067  31.8923569  50.8969975  79.7016668  22.6124978
  50.0228500  80.0170326  22.8419185  50.8664942  79.5805359  21.6634822
  25.7587647  64.4382811   0.5077992  25.1563501  64.6791983  -0.1959669
  26.5200305  64.0730476   0.0568992  63.6762953  94.5466232  85.5751896
  64.2438793  94.2720222  86.2953854  64.2635584  94.6230888  84.8231888
  87.2702980  48.5952425  18.3841002  86.5498734  49.1433716  18.6951828
  86.8412876  47.8271294  18.0070210  29.3696356  77.3935413  13.8191283
  29.1732717  77.5185871  12.8906679  30.3229237  77.4607372  13.8734889
  71.6677141  56.4986420  36.3272929  71.9078398  55.9356070  35.5913830
  71.8171024  57.3882008  36.0069847  27.4202371  39.6796227  31.4945841
  26.9098592  40.4120111  31.8400598  28.0234647  40.0817776  30.8695889
 110.8187866   5.2079308  83.7337399 110.9697151   6.1157209  83.9971256
 110.5140877   5.2687210  82.8283787  84.5177174  54.6058607   9.8268163
  85.1211452  54.9350071  10.4929745  85.0148106  54.6510363   9.0100592
  71.4915323  63.9889812  38.2089567  71.0508251  64.6532679  37.6791143
  70.9966421  63.9688492  39.0280485  42.6848459  36.8295956  31.5037489
  42.7734566  36.5235496  32.4063659  42.7169180  37.7839470  31.5701914
  97.0306587  51.7418003   5.0285363  97.2727489  52.4511051   4.4331288
  96.5043831  51.1483955   4.4926837 101.4737034   1.4740714  33.6602974
 102.3165226   1.2252477  33.2808566 100.9016705   1.6097721  32.9049158
  65.3581333  32.7200389  44.0051031  64.8229408  32.4483061  43.2594776
  64.8658657  33.4372211  44.4045496  38.6446357  93.1283379  20.8744931
  37.7425075  93.4203434  20.7436156  38.9990854  93.7311935  21.5280724
  86.5012932 101.0645294  85.7199764  87.4558544 101.0017014  85.6868362
  86.1941719 100.2166080  85.3991318  37.9043508  66.2306833   0.2115771
  37.7955866  66.0553885  -0.7231279  38.4398413  65.5043268   0.5307663
  82.5251961  67.8365612   1.4042853  82.2860146  68.6079788   0.8905323
  82.7757931  67.1825409   0.7518353   5.2033061  92.3119736  90.7511139
   4.7347200  93.0830574  90.4316044   5.3055692  91.7565536  89.9782753
  48.8160419  42.9576206  20.5721116  49.7555828  43.1367445  20.5345345
  48.7554884  42.0030403  20.6088161 101.4443874   7.6336938  92.5449276
 100.7220173   7.6965880  93.1697941 101.6184139   6.6951466  92.4736786
  94.7853470  69.8005199  77.9132462  94.1376209  70.2615452  78.4462929
  95.5347252  69.6814108  78.4967613  16.3479340  63.7994099  26.7509842
  16.5019453  63.6328316  27.6809120  15.6577396  64.4624949  26.7375350
  44.1172886  50.4372644  18.2034826  43.2850027  50.8202791  18.4806705
  44.6760321  51.1907434  18.0129325  64.4325209  99.6525764  29.3279171
  63.5156918  99.4335461  29.1615391  64.9251986  98.9241600  28.9498687
  46.1526871  65.6968212  24.1755748  46.3029051  65.5727434  23.2384133
  45.2091408  65.5782843  24.2846584  46.3083506   8.5591227  30.4849672
  46.4674044   7.6169890  30.5425715  47.0249701   8.8903522  29.9436951
  79.9792099  43.5687304  25.1553774  79.9985886  44.4851398  25.4311442
  79.7076797  43.6003447  24.2380428  48.8349056  37.6604009  15.2902138
  48.4489918  37.2237682  16.0495913  48.9803648  36.9568443  14.6576929
  31.4023519  28.6163855  22.3823643  30.7491302  28.1903958  22.9374003
  31.0655451  29.5030475  22.2534323  37.6468515  50.1652241   7.3679453
  37.5749421  50.5661488   6.5017343  38.4009194  50.5967140   7.7697301
  43.1730795  61.4713097  22.6590681  43.3070421  61.0114384  21.8303299
  43.6257219  60.9324455  23.3078909  22.0231795  54.3033218  14.7486210
  22.5914788  53.6016989  15.0664175  21.3126278  54.3444538  15.3886640
  20.7897258  39.9335742  16.3120854  20.6469560  40.3326654  17.1703243
  20.4322982  40.5677795  15.6905842  24.1230011  70.6070185  16.9285274
  24.0027714  70.0159597  16.1852741  24.8772860  70.2509642  17.3981154
  42.7334213  47.1569109  45.2658081  41.9000959  47.0670843  45.7281208
  43.1277704  46.2859154  45.3114891  50.5075550  24.9884725  35.7449412
  50.9287214  25.0274134  34.8862576  49.5998430  24.7506356  35.5559325
  53.3687782  52.8642654  21.4042211  52.5657177  52.7061176  21.9005203
  53.0683327  53.0434752  20.5132389  34.3793583 106.6846466  53.3689117
  34.7770333 106.2751293  54.1372776  34.1211414 107.5562382  53.6687088
  76.3108015  48.4160995  23.1351233  76.1035967  49.2742348  22.7651191
  75.5186701  48.1617737  23.6084938  83.2611465  99.0624046  80.3849792
  83.7597370  98.6038303  79.7087049  82.7140045  98.3839512  80.7806587
  50.2192497  91.0544014  24.2815471  51.0169172  90.5325603  24.1941643
  50.5266428  91.9607449  24.2986178  20.4984808  17.6726818  45.1700163
  20.0293303  17.3726904  45.9485626  20.5307794  16.9049871  44.5991993
  73.6757994  93.0561161  84.6779919  74.6190166  93.2048702  84.6112823
  73.3009911  93.9321899  84.7687435  72.1216345  63.0352306  16.2663007
  72.4846506  62.8235388  15.4062784  71.2655163  62.6072311  16.2768590
  67.7292776  22.8254676  19.3919873  66.9413567  22.6903558  19.9184453
  67.5149870  23.5671759  18.8261449   9.1368347   3.8005349  70.5486012
  10.0618696   3.8594323  70.3097010   8.7957793   4.6833616  70.4053164
  35.1511979  20.4317021  76.4480066  35.7297659  21.1730862  76.6264391
  35.6275630  19.9052238  75.8060360  28.3712626  33.9120054  22.8299356
  29.1117501  33.4620857  22.4231410  27.6896071  33.2429457  22.8926873
  61.4900351  34.1696024  36.4779973  60.9021187  34.9249554  36.4722514
  60.9401751  33.4360218  36.2027740  63.9078379  88.2549381  11.4549315
  64.7242022  88.1478119  10.9667695  63.2575321  87.7746105  10.9424603
  89.6004772  93.4226894  79.1238117  88.8111591  93.5557365  79.6487141
  89.6145153  94.1652393  78.5199404  49.4889498  69.4997978   1.0297929
  50.3197384  69.0432072   1.1622705  48.9596128  68.8897181   0.5161373
  54.7982788  17.0815694  14.0355921  54.4856310  17.8931236  14.4354177
  54.0069485  16.6581821  13.7027740  40.3318882  51.9475746  33.9786291
  39.4191003  52.2232342  34.0626836  40.4287148  51.2416267  34.6177602
   4.4533679   4.4340569  90.0602341   4.4726014   4.3060935  89.1118240
   5.3240478   4.1677243  90.3555584  42.3172331  33.7278700  39.6398258
  42.5090361  34.3382645  40.3517675  41.3670588  33.6160231  39.6696806
  65.2574873  59.3571806  31.2608027  65.6694365  60.1441574  30.9041619
  64.9702644  58.8670778  30.4903889  70.3489590  71.0057878   5.8576310
  69.7690153  70.3155041   5.5360597  70.1106405  71.1089420   6.7789328
  72.8843117  67.4911737   4.2636323  73.3897018  66.7151308   4.0216148
  71.9759560  67.1897936   4.2804685 109.4534206  72.1342802  39.8834348
 110.4051685  72.2218657  39.8311806 109.1749191  72.0023727  38.9771962
  46.6513252  66.4433050  10.7481432  47.5897646  66.2810993  10.8443165
  46.5763617  67.3965168  10.7034445  12.0774961   6.5852010  80.0503826
  11.4302278   6.5718031  79.3453312  11.6054177   6.9433039  80.8021355
  72.0044279  57.7150583  14.9525893  72.4482584  57.7672005  15.7990658
  71.7152214  58.6107063  14.7782159  27.7331948  71.8643713  13.4946287
  28.3371258  71.5196180  12.8368735  27.1919298  72.4928236  13.0168092
  63.7743425  86.4694309  92.7997780  64.1281843  86.2738514  91.9321442
  64.0873098  87.3532677  92.9924107  14.0815759   4.2367080  80.7501125
  13.6062729   4.7680578  80.1113701  13.4347570   3.6053535  81.0651493
 110.0504875  11.7351532  85.1697540 110.7889748  11.4928222  84.6110439
 109.6415806  10.9012437  85.4013062  73.7903738  35.1722550  17.3461485
  73.5602236  34.2605472  17.1671176  74.1317225  35.5008674  16.5144467
  80.8688354  50.4279327  15.0384784  80.3285503  50.9392023  14.4360435
  80.6322098  50.7530165  15.9071350  47.0323372  35.3265882  12.6841211
  47.4490356  35.0472426  11.8689156  47.0231056  34.5403838  13.2300425
  53.3043098  16.7780340  23.5486102  52.9512310  17.6517844  23.7163115
  53.3115005  16.7016804  22.5944877 105.2120686  89.5228386  79.7842312
 105.5064106  88.7943840  79.2374706 106.0187912  89.9005699  80.1345730
  66.3783264  58.6625290  20.2455664  66.1537313  58.7446022  19.3187153
  65.5338383  58.6417150  20.6957173  47.6051044 100.3200150  39.6723604
  48.5486937 100.2925014  39.8308229  47.2779322  99.4948292  40.0304937
  42.0270824  52.1816444  24.8457170  41.7432976  51.2967443  24.6162534
  41.5552902  52.3824310  25.6540036  53.0781698  55.2661943  11.7422652
  52.7089548  54.4492245  12.0776260  53.3312702  55.0628090  10.8418179
  64.5654488  42.4326801  29.7005177  64.3335772  42.6484537  28.7972403
  65.4235077  42.8364897  29.8305225  75.5815125 101.0269642  88.9596558
  75.1186371 101.1162663  89.7927189  75.8380079 101.9204140  88.7312031
  62.4361134  27.0221448  49.1663408  61.5347242  27.2770667  49.3631697
  62.9571819  27.7937484  49.3884850 102.4976063  91.0256672  76.9609833
 102.3274136  91.5004730  77.7745056 102.2340679  91.6329384  76.2696028
  50.5675983  51.3696527  32.1141434  50.9433651  50.5565119  31.7767501
  50.8259821  52.0354462  31.4768147  29.5212698  51.2294912  30.7799697
  29.4984913  50.2968693  30.9942794  30.1983714  51.5902996  31.3523173
  19.8755980  78.1252718   8.0593413  20.2646351  78.9664221   7.8198576
  19.0684462  78.0801058   7.5468004  37.2899508  40.2774239  22.3633790
  37.6851869  40.4227400  21.5037847  37.5207615  41.0573339  22.8680587
  72.4047518  41.2592793  14.7494066  72.1265793  40.5492973  14.1708112
  71.9326210  42.0279837  14.4293690  52.7850580  42.1046209  35.0496507
  52.9299355  42.3597527  34.1385245  53.6031723  41.6835117  35.3134418
  54.4757605  43.1978846  21.5447164  54.4144201  42.8396273  20.6592107
  54.9788094  44.0057325  21.4419389  64.1179037   2.8526732  48.4683037
  63.3506250   3.2081926  48.0198383  63.9838505   3.0793557  49.3885660
 103.3240318  68.2134390  90.6647205 102.9361725  67.3465300  90.7841206
 103.7149620  68.4199238  91.5137100  33.2955647 103.9404202  35.2222657
  32.4763823 104.1001129  35.6909585  33.9283156 103.7327099  35.9098053
  97.4107265  96.2925339  64.1589451  96.7422676  95.7768154  63.7079096
  98.1516171  96.3066673  63.5530472  74.0326214  38.8802648  14.1808569
  74.6715832  38.9493299  13.4715009  74.1761446  39.6650672  14.7097433
  21.8416023  33.5123062  27.2896051  22.4877572  34.1874218  27.0824003
  21.1502719  33.9786243  27.7595401  22.2156763 101.9456482  88.4994507
  21.3537574 101.9337559  88.0832958  22.7874923 102.3614120  87.8541565
  64.3800259  41.5674877  22.4886680  65.3135252  41.7649841  22.5648665
  64.1699791  41.7526340  21.5733385  91.5293312  94.6166611  71.8283129
  91.1736584  95.4444313  71.5050268  92.1132469  94.8698235  72.5432825
  31.6368604  45.3332520  48.9900589  32.3971510  45.2653837  48.4124947
  30.9455085  45.6934309  48.4346008  72.8504658  85.7051086  77.0002985
  72.4917746  86.1640453  77.7598715  72.4512291  86.1402893  76.2470007
  35.5368996  52.1214437  28.2283282  35.2185488  51.9631338  29.1170478
  36.0267973  52.9413176  28.2918954  47.2186661  49.3140793  35.3660965
  47.6549101  50.0141954  35.8516455  47.8729963  49.0176439  34.7334743
  75.2273703  72.1389246   6.1046278  75.8729267  71.9132328   6.7743641
  74.5098066  71.5213585   6.2458611  80.6718349  37.2811270  37.7769470
  81.4598370  37.6661873  37.3935294  80.8935642  36.3586974  37.9042006
  30.8288860  24.3221188  17.6835346  31.1740327  25.0797629  17.2112179
  29.9924994  24.6223235  18.0392957  20.4148602  42.5889206  91.5232849
  21.1302042  42.4063826  90.9140301  20.6440258  43.4310722  91.9163418
  73.6585522  37.5055194  10.3335726  73.3420658  38.0827999   9.6387255
  74.4648981  37.9199862  10.6405854  53.7253428  61.1515808  23.7827110
  53.3713484  61.9947433  24.0655565  54.6713781  61.2373257  23.9005756
  85.8355141  42.7297544  15.2114296  85.5151176  42.0862770  14.5793533
  85.0868988  42.8960991  15.7842612  83.9856243  94.9606419  91.6192818
  83.2471848  94.7578907  91.0449696  83.5814857  95.2051067  92.4518299
  32.1674418  66.2033749  13.2110524  31.8075824  66.7041016  13.9431763
  32.7119470  66.8312311  12.7361357  38.3254123  34.8754168  32.9714489
  39.0715694  34.5099854  32.4961185  38.1003475  34.2046428  33.6161518
  68.5130262  50.6887388  15.9036934  69.4665527  50.7650566  15.9383440
  68.2077742  51.1416769  16.6897607  46.3516617  59.5509005  11.5389752
  47.1765661  59.3992186  12.0002282  45.6815767  59.4878912  12.2195971
  58.7380075  52.5816345  16.5647793  58.2120275  53.2204819  16.0836911
  59.4507408  52.3586702  15.9660029  91.0794067  66.3417435  85.9023190
  91.3957787  67.2042131  86.1711693  91.7675495  65.7370090  86.1797810
  55.5530167  72.9054308  21.3777041  54.8239326  73.2789040  20.8825469
  55.1898956  72.7349424  22.2467899  92.9126740  40.2552509  15.2731729
  92.9707146  40.8474970  16.0229123  93.5576630  39.5722795  15.4569662
  48.1815720  13.3253348  21.6676950  48.1183863  14.2777944  21.5965676
  48.7894440  13.1790805  22.3924923  74.5320320  35.5606461  33.0114269
  74.2405319  36.1168575  32.2890067  74.6542549  36.1642551  33.7441969
  45.0554943  34.5564842  35.0136280  44.5146322  34.8590970  35.7430983
  45.5905437  35.3153920  34.7812271  40.0488281  28.7049007  42.1189880
  39.2282844  28.3239937  42.4317932  40.6901264  28.0001569  42.2101259
  38.4896851  15.2677119  88.5564232  38.3322024  16.0726821  89.0498352
  38.6862063  14.6115279  89.2250347   9.1382533  73.2664299  83.6447239
   9.1540098  74.1803885  83.3607101   8.6085296  72.8195429  82.9844856
  53.1618023  19.5287418  29.9960327  53.0114937  20.1923060  30.6693244
  52.6355028  19.8196602  29.2513156  88.7072468 104.7064686  86.9678116
  87.8072643 104.7645760  86.6470528  88.6385250 104.8795509  87.9067230
  61.1955547  50.1463413  26.4018536  60.5269575  49.6927834  25.8885360
  61.2937498  49.6137857  27.1911383  98.7853813  29.5293760  77.1930265
  99.0159321  30.3397870  77.6472473  98.6138248  28.9017820  77.8951168
  26.0201716  16.8607342  36.3633037  25.1672244  16.6211748  36.0009170
  26.6041136  16.8853450  35.6052542  18.8977814  94.1061497   2.2333962
  18.1118917  94.6525860   2.2295651  19.3877029  94.3857765   1.4600810
  63.2470036  52.9990864  37.1510220  62.9338789  53.5049486  37.9008794
  63.9063311  53.5598612  36.7423010  66.3800240  70.8246326   2.1839631
  67.2270966  70.6197023   1.7881036  65.7558012  70.7591486   1.4612699
  76.5945482  69.1527605  14.0292680  76.7370510  68.5884571  14.7891915
  77.4345541  69.5919847  13.8962173  37.3645091  49.0603495  41.6773510
  38.1527686  49.1505480  42.2128391  37.0983768  48.1483936  41.7945910
  90.6432056  81.8353939  73.1102180  90.5803013  81.2379646  72.3649979
  90.0065804  81.4992714  73.7410593  89.2500591  88.7198544  92.5446796
  89.0398121  89.0386677  93.4223938  90.1380444  88.3711243  92.6228523
 105.4798794  71.4669943  20.3795457 104.5810413  71.4675379  20.7086706
 105.5453968  72.2686195  19.8605764  70.2192307  58.6427927  29.5122242
  69.9673891  59.5645571  29.4559669  70.6408215  58.4580374  28.6729622
  37.4101281  52.5828409  18.6323678  37.2280526  53.5214376  18.6784351
  37.9891229  52.4144173  19.3757582  33.4766173  62.3907375  49.1053963
  33.1064224  62.7157688  48.2847023  34.3844390  62.1765423  48.8904190
  55.9604168  70.6035614   1.9913988  55.6073284  71.4174128   2.3508507
  55.5596876  70.5305862   1.1251862  41.6267490  40.2179432  86.5581036
  42.1010447  40.9948015  86.8543530  41.7963839  39.5615673  87.2338390
  72.7852964  52.3576164  19.3855870  73.7101221  52.3575783  19.6324229
  72.4356222  53.1628799  19.7670448  49.4086409  84.5394993   9.1370136
  49.5239925  83.6145210   8.9194310  49.4203472  84.9877453   8.2913351
  55.7862329  44.3485498  10.9089351  54.8478365  44.2379427  10.7559276
  55.9423733  45.2832413  10.7740247  50.2367115  60.9873295  12.5814998
  50.2152538  60.4003334  11.8257165  49.4130421  60.8188248  13.0391037
  57.8168154  44.2220306  14.5567584  57.4084997  44.1493130  15.4194415
  57.1363258  43.9406490  13.9452064  46.5746212  38.5791612  84.9359035
  45.7219982  38.1763387  84.7715855  46.7898560  38.3265090  85.8337116
  41.4487791  79.5914316  33.2308459  41.1617517  80.3556633  33.7306452
  41.7891169  79.9541187  32.4130082  53.3634901  69.8810482  22.8486633
  53.7202120  68.9937305  22.8893757  52.6556540  69.8844194  23.4930110
  40.6892967  41.8732119   4.8902038  40.2985620  41.1672211   4.3752843
  40.5100822  41.6339159   5.7995188  46.7141438  90.7344246  52.5903320
  46.3798285  90.3738499  53.4115791  47.1002579  89.9839020  52.1388245
  59.7192717  54.9358416  23.8292551  59.4517565  54.0242147  23.7125993
  59.6268177  55.3256989  22.9599476  65.6692982  59.7317410  33.8640046
  64.9950361  60.4056454  33.9502954  65.6940746  59.5362711  32.9273033
  82.1750450  59.6377945   2.2242290  82.0924187  60.4972553   2.6374328
  81.4597797  59.1227818   2.5975832 108.5254860  51.6919899   8.7181163
 108.9150143  50.8631945   8.4395468 109.2345905  52.1503067   9.1690624
 103.2656479  78.1779766  10.3062904 104.1172123  78.5907555  10.4501331
 103.4184074  77.2483683  10.4757965  99.1349888  98.5508919  51.8914318
  98.5042763  99.0256882  51.3501310  99.1626549  97.6724529  51.5122080
  80.8354092  67.6435804  39.0323663  81.4613152  67.5987482  38.3095551
  80.7968330  68.5728836  39.2585039  69.6813011  64.9228334  11.8378520
  68.9508009  65.0636721  12.4401498  69.3398428  64.3103886  11.1862791
  95.3355503  81.9412613  29.5942211  94.7341156  81.2099934  29.7347689
  95.7954121  81.7208672  28.7841654  47.4188089  14.7955394  29.7719812
  47.5129938  13.8837039  30.0475097  46.8307304  15.1822495  30.4207087
  28.1136179  55.2402735  25.2531123  27.5209260  54.9391842  25.9417987
  27.6280904  55.9330225  24.8052335  44.7794580  70.9705496  14.1737103
  45.2312517  71.7028856  13.7544298  44.7141647  70.3054428  13.4884393
  16.4958847  17.2568154  92.5946426  15.8131433  16.6127729  92.7825260
  16.0239446  18.0085421  92.2362900  64.5606327  62.2296906  31.4776325
  64.1256094  62.0134163  30.6528854  64.1240311  61.6815281  32.1296477
  30.9487772  17.3774302   6.8944508  31.5651965  18.0804086   6.6893160
  31.3174438  16.9543064   7.6698750  23.6658192  96.1589909  20.1986933
  23.2992196  95.3784657  19.7832239  23.6973476  96.8107033  19.4983327
  66.5825748  42.7539492  39.1129708  66.4499474  43.4482479  38.4675336
  65.9082651  42.1057701  38.9094830  54.9833059  48.2570219  35.3611398
  55.2567720  48.6429739  36.1932993  54.4089174  47.5329590  35.6102085
  55.4672384  24.4763160   8.3805853  55.0758886  25.3480506   8.4367603
  55.2013779  24.0417480   9.1909552  27.9185534  32.3921227  62.3763990
  28.8546586  32.4447250  62.1835947  27.5075722  32.2330523  61.5266800
  66.2879467  66.2652111  37.2036552  65.5899334  65.6840229  36.9016075
  66.2141991  67.0387459  36.6446948  35.4140949  39.1726327  18.4401333
  34.8107243  39.7688723  18.8836133  35.8223510  38.6745453  19.1482782
  63.9557552  62.6595831  41.0458326  63.9571238  62.2386789  41.9055223
  64.7877455  63.1314516  41.0088539  85.2331734  70.1701880  38.9924359
  85.3746319  69.8804092  39.8936844  85.4971695  71.0902643  38.9924526
  89.8882294  66.6361666  24.8395467  89.4558907  66.2512970  25.6019020
  90.8209610  66.4829063  24.9904108 110.7083607  45.0778627  10.2367902
 110.3692532  45.8922005  10.6084013 109.9273682  44.5591927  10.0437713
  67.7838135  30.1065731  39.2324924  68.2907963  30.5982232  38.5863614
  67.8486729  30.6263089  40.0336790  91.0214043  63.7022400  40.2260160
  90.4290199  64.1651011  39.6335030  91.1347675  62.8400278  39.8260546
  66.4328480  72.7355146  35.9838557  65.9026194  73.1451511  35.3002739
  66.5076017  73.4059048  36.6629863 107.0384598  82.8316307  79.1708708
 107.7782059  82.5067902  79.6841860 106.9494247  82.2028637  78.4546614
  89.6607876  24.7159863  23.1848121  89.9552631  25.4896593  23.6653757
  90.4683781  24.2972755  22.8869605  47.3960447  39.8179936  36.5523577
  47.7251244  39.7725391  35.6546545  47.7540398  39.0391827  36.9784141
  29.0770030   1.3960418  16.4269519  28.8850975   0.4772080  16.2394714
  29.7548795   1.6331047  15.7940888 102.8947830  91.2749577   3.2379889
 102.1180153  90.7379532   3.3945090 102.8756809  91.4555836   2.2981808
  10.2346075  14.4038606  91.8412971  10.2292037  13.4538341  91.7244625
   9.3508136  14.6800470  91.5986919  49.4229412 104.6398067  25.5157113
  49.7657204 105.1202869  24.7621369  48.7922430 104.0249348  25.1410198
  37.4017334  76.1514997   7.0930773  37.8204775  76.9142246   6.6941601
  37.1126151  75.6212473   6.3504624  68.8506269  85.5756378   3.4004989
  68.1611395  84.9117565   3.4107855  68.7588501  86.0030937   2.5489753
  24.4475698   8.7352067  72.8552675  23.9996338   7.9102123  73.0422688
  24.0530944   9.0422529  72.0389652  19.1173840   5.0690347  41.5999126
  18.5885894   4.2714381  41.5787697  18.5380685   5.7496363  41.2572670
  72.3257256 105.6163406  20.9453321  72.8891420 105.2222538  21.6112804
  71.9893551 104.8725319  20.4454947  71.2880468  69.2939377  25.3549504
  71.5625429  69.1821623  26.2651110  71.8659163  68.7151146  24.8576951
  49.4849634  52.0504856   5.0119090  48.7105989  52.1847916   5.5583096
  49.5825529  51.0994577   4.9644056  32.4401546  54.5557117  76.6867399
  31.6836953  54.6247053  77.2691870  32.6773548  53.6286831  76.7109966
  79.9980593  23.3369613  27.7625179  79.3055391  23.7604928  27.2553039
  80.7129097  23.2160378  27.1375322  81.6121864  51.5458250  37.2681379
  81.3781261  51.1053610  36.4511704  82.2920418  50.9923172  37.6524043
  10.1826930  90.1727676  81.3907909   9.5948797  90.6816292  80.8324242
  10.4752278  90.7929611  82.0586300  21.4149809  17.6332819  88.3039856
  21.9199252  17.2605646  89.0267181  21.3354754  18.5620880  88.5213089
  74.4765615  25.6736326  23.9680505  74.4040489  25.1180100  24.7441030
  74.6281147  25.0611234  23.2482624  20.3540707   5.9158713  92.8456211
  19.4562840   5.6985295  93.0965614  20.4494858   5.5576354  91.9631290
  81.2851143  79.5144796  40.1886940  80.9231853  79.4962406  39.3027425
  82.1289539  79.0691996  40.1119089  65.1457310  67.2839355  25.6100392
  65.2815247  68.2289553  25.5412865  64.1952991  67.1754503  25.5762744
  68.9941120  45.8706617  33.0354381  69.4562197  45.4596329  33.7660122
  68.1865692  46.2086439  33.4225750  67.6018620  78.5093927  24.6659708
  66.8699789  77.9301882  24.4536090  68.3741188  77.9455614  24.6218705
  78.9936638  59.2111874   9.2595130  78.9206314  59.1362762  10.2109778
  79.9275255  59.3491983   9.1011083  12.8697217   1.1156017  68.7112713
  12.8769684   1.0620639  67.7555990  12.0591044   0.6769663  68.9695930
  68.1513786  99.4602394  91.2470341  67.3912668  99.6663570  91.7910767
  68.0196571  99.9707985  90.4481602  50.8599043  53.4007978  33.9430809
  50.9188318  52.7437162  33.2495427  51.4442968  53.0780792  34.6290612
  64.5033455  64.9572945  32.9613948  64.1434479  64.4086933  32.2644448
  63.7454462  65.1922941  33.4967422 111.3202000  74.9178600  14.1233528
 111.9452477  74.6568298  14.7996807 111.2291718  74.1426325  13.5693038
  64.7397852  64.5408344  27.0033598  64.6100378  65.4808044  26.8774652
  63.9735937  64.2580318  27.5025606  49.7155046  10.2835286  56.2203407
  49.2371273  11.0215235  56.5981674  49.0614939   9.8139876  55.7026243
  46.4960003  79.5825577  25.9760499  45.9899235  79.0403605  26.5811467
  45.9154081  80.3143978  25.7673526  55.9944916  74.7899246  81.3339520
  56.6051054  74.6355581  82.0547485  56.0641718  74.0060902  80.7889938
  88.3566475  62.5392342  37.6192069  88.5018921  63.4651709  37.8135824
  88.8051891  62.0731640  38.3247733  63.8370228  84.1345692  46.4553308
  63.6656284  83.7585735  47.3187447  63.8425636  85.0803280  46.6027498
  95.8173275  45.6877232   1.3635442  96.2951565  46.4900064   1.1531650
  94.9034405  45.9641218   1.4316562  45.8935642   0.4684917  87.9262447
  46.4963818   1.2120134  87.9222965  45.5956364   0.3968855  87.0194149
  59.4062424  66.8019915  31.4422226  58.5345554  66.4825773  31.6753983
  59.7444153  66.1493063  30.8291411  81.0993958  43.5949135  21.4641476
  81.7318344  42.9428911  21.7660189  81.6122150  44.3966818  21.3620734
  43.9929581  66.6846228  20.7062984  44.1119480  66.7299843  21.6549897
  43.2072449  66.1507130  20.5887151 110.6810570  23.5916209  88.3802414
 110.0848293  24.3333817  88.2775784 110.1058578  22.8294230  88.4468460
  14.8405933  37.1562099  57.1884012  14.1971636  37.1018910  56.4818048
  15.5860865  37.6131034  56.7988873  25.8512092  74.8109961  50.1382017
  25.7865000  75.7042599  49.8003817  25.4082513  74.8429298  50.9861374
  62.0596170  80.5794716  18.6842799  61.6494846  79.8046160  18.3000684
  62.7939844  80.7751942  18.1023598  40.9535265  75.3913212  24.3356609
  40.9036064  76.3383913  24.2060375  40.6555843  75.2566767  25.2352905
   4.9309608   0.5518589  90.3508377   5.0925314  -0.2932801  89.9314690
   5.7611954   0.7722931  90.7731533  31.3607550  30.1586437  40.3987217
  30.4734612  30.4361725  40.1708698  31.8951702  30.4277420  39.6515822
  64.6307182  54.9451923  39.3124056  64.0714693  54.7398853  40.0616169
  65.4973316  55.0888300  39.6926475  78.0731440  81.4301109  16.2652779
  79.0159321  81.5376091  16.3910675  77.7111340  82.3045254  16.4087534
  61.7215204  95.1789093  21.7615652  60.8804798  94.9843407  22.1751142
  61.5473843  95.9436321  21.2128305  80.7198238  57.2244692  17.5487101
  80.4404926  57.3107958  16.6372538  81.4949512  56.6642141  17.5096273
  55.6909037  24.1613698  24.8134899  56.4174414  23.5639381  24.9908090
  54.9435616  23.5868859  24.6471071  77.8854227  81.2990284  38.7482691
  78.2907534  80.6668568  39.3418217  77.3607445  81.8608189  39.3186522
  87.1253490  85.2729511  17.5402498  87.7241898  85.7065964  18.1481719
  87.6908207  84.9409008  16.8429613  43.7471628  46.3309336  24.7476912
  43.8516426  47.1621466  24.2846584  43.4117079  45.7278013  24.0844154
  81.2715054  64.3430948   5.5874056  82.0567894  64.8763704   5.4641765
  80.5674171  64.9791479   5.7135928  54.7052622  27.8651690  75.3610754
  54.4989252  27.5667763  74.4752884  55.6004238  28.1984544  75.2991056
   1.1587839   1.1749213  21.3455415   0.9167144   2.0734340  21.1212444
   2.0986462   1.2170114  21.5219474  58.0194569  48.1832170  32.7015400
  57.3188591  48.8335514  32.7511239  58.6233425  48.5312700  32.0454788
  63.8513327  79.3168354   7.3908836  64.2265511  80.1956463   7.4468577
  62.9290724  79.4352579   7.6181382  63.2904005  53.6878490  26.8492150
  62.4480295  54.0440607  26.5668058  63.8015413  54.4556952  27.1048975
  69.2856979  69.7686815  28.4741306  70.2098131  69.6734190  28.2435417
  69.1117573  69.0414667  29.0717340  52.7195978  85.2057171  13.0868864
  53.5273266  85.0252724  13.5677660  52.7705860  84.6438217  12.3136437
  32.3086143  67.0730972  46.6401005  32.9039621  66.9664669  47.3820066
  31.4561820  66.7950249  46.9751644 103.9572144  22.5547576  91.9235992
 103.8623619  21.8523097  92.5668716 104.3144131  22.1224952  91.1478424
  67.9687309  98.5705090   5.9220058  68.7764549  98.0569744   5.9119362
  67.4162054  98.1609440   5.2562678  27.9517055  53.8671875  11.0844743
  28.0701566  54.8009396  11.2585628  28.0236626  53.4522676  11.9440663
  43.5223436  73.7152004  65.2005339  44.3079615  73.8264561  64.6651316
  42.9342604  73.1909561  64.6568871  10.7381880  71.3186121  34.9205637
  11.2152433  70.5859804  34.5308161  11.2208951  72.0957088  34.6388769
  75.2146101  53.5748005   9.2894000  76.1706638  53.5355902   9.3149704
  75.0166368  54.4999933   9.1442943  91.6497993  22.8390956  25.9052610
  91.8406677  21.9494653  26.2025189  90.8039474  22.7675366  25.4629540
  77.6826763  29.6631002  31.1735487  77.7511883  29.0191007  30.4687047
  77.0483017  30.3036690  30.8518839 105.2338600  65.9028530  35.1100636
 105.4025555  66.2874413  35.9702158 106.0227203  65.3970194  34.9149752
  91.4304829  18.4014523  87.0976257  91.5996838  17.8911638  86.3056660
  92.2341156  18.3201087  87.6112270  68.3721733  49.7891426  11.4238441
  67.8263330  49.9373055  10.6516171  67.8904772  50.2022409  12.1404684
 113.2001114  30.4272199  83.0351830 113.7756538  29.9011326  83.5903549
 113.0563164  31.2316632  83.5336018  27.8963280  13.6082709  91.8103409
  28.7110496  13.1841147  92.0796967  27.2547436  13.3320177  92.4647713
  47.5118399  40.7093954  27.0878649  47.8963375  40.4612780  26.2471318
  48.1048012  40.3383064  27.7412558  82.6264000  37.5072265  21.0191774
  82.3014927  36.6069293  21.0307884  83.5430145  37.4345160  21.2851930
   9.2930734 102.0317364  57.6823902   8.6961985 102.7771950  57.6170301
  10.0940609 102.3276138  57.2498274  20.2346754  28.7394047  23.6293530
  20.2499771  27.7827311  23.6571503  19.3196952  28.9593244  23.4542060
  57.7601624  44.0644360   1.5279362  56.9459248  43.9545155   2.0190215
  57.5637388  43.7174273   0.6577442  87.5831413 107.0627689  23.6610651
  87.7083302 107.9539299  23.9872241  88.3127308 106.5669918  24.0327454
  88.0564690  63.8982916   5.3094631  88.7372780  64.5658112   5.2249080
  87.2851849  64.3794489   5.6092012  60.1145840  86.9617367  27.3641968
  60.1811886  86.0704517  27.7068424  59.1734648  87.1210670  27.2924995
  77.6914310  63.0196238  16.6370571  78.1027269  62.6478100  15.8567858
  77.7004719  62.3064756  17.2754705  76.8564606  98.7222672  53.2149982
  77.3035240  98.5785103  52.3809099  77.4638414  98.3851147  53.8735151
  96.6570663  93.6787224   3.8650590  96.0563946  92.9624081   3.6593553
  97.4851036  93.4207344   3.4600586  49.0506029  80.3641987  26.6442728
  49.4312763  80.3248119  25.7669091  48.1066322  80.4141617  26.4937639
   2.1115604   3.3973342  39.4041586   2.4710105   4.2805117  39.4879746
   1.2251990   3.4648019  39.7591853  60.5335999  38.0015659  20.2264094
  60.2802706  37.1120572  19.9797750  60.9825611  38.3455586  19.4541800
 103.6957455  90.5281830  86.0057926 104.5543671  90.2242851  86.3001251
 103.6119652  91.4061546  86.3777828  98.1798840   0.6435014  14.4382286
  98.4563637   1.2095439  13.7175429  98.6377430   0.9899577  15.2041054
  24.7069454  71.2128448  33.9788651  25.4052138  71.7783928  33.6490035
  24.3153310  71.7098808  34.6970725  50.6174898  80.5487347   0.1607606
  50.1146555  79.7735023  -0.0890295  50.3602552  80.7193756   1.0668214
  63.3246613  75.6940174  11.1504841  64.2183590  75.5640411  10.8332467
  62.9363728  76.3083935  10.5275846  58.4806252  77.3924923  48.8837767
  57.5419044  77.5020742  49.0355396  58.8703537  78.2100821  49.1934299
  85.4724121  95.2507019  33.7458038  84.9152184  94.6970940  34.2928767
  84.9461651  96.0334969  33.5829139  51.7411566  68.4645176  28.8262939
  51.4257193  67.7839661  29.4209194  51.1750412  69.2163515  29.0009069
  57.3457384  85.2715015  23.4262729  58.2008839  85.6890011  23.3230662
  56.8281794  85.9052563  23.9229870  69.7615099  46.8910885  15.0363803
  69.7472906  47.4911070  15.7820380  70.6466055  46.5266371  15.0390625
  78.7138319  89.3449688  44.9532127  77.9170275  89.3998051  45.4807806
  78.6660051  90.1008129  44.3678570  51.3182926  83.9549065  28.2454300
  51.9447279  84.0704441  27.5309658  50.5402374  83.5888004  27.8249168
  61.9916248  81.8368721  44.2471981  62.8817034  82.1889877  44.2469311
  61.9393635  81.3172722  43.4450054  69.1092587  75.2883434  10.2814984
  69.4054747  74.8566818   9.4801527  69.0126705  76.2085247  10.0362134
  80.8070374  89.1388512  11.4635801  80.5820179  88.6179066  12.2344363
  81.6528320  89.5319939  11.6787493  96.2902451  69.9220610  37.6371789
  96.3571072  69.0325165  37.2900915  95.3693199  70.1558638  37.5210857
  79.1710567  71.8500423  48.4866047  78.8522625  72.6835108  48.1402969
  80.0030994  71.7059326  48.0358553  57.6996803  74.1844082  26.3785124
  57.1867180  73.4036970  26.1697245  58.2423544  73.9225960  27.1222782
  54.1911077  66.9473648  22.4046469  53.9538479  66.1431551  21.9429278
  54.9729204  67.2622681  21.9509506  47.1958208  62.4631643  19.2634404
  46.2404442  62.4971581  19.2151082  47.4844503  62.5374126  18.3538187
  84.6893120  20.3913426  39.8037815  84.4449329  21.2412381  39.4374561
  84.1370392  19.7625458  39.3391871  67.5757360  57.7497578  23.1088686
  68.2988739  58.3525419  22.9357910  66.8228912  58.1468439  22.6709485
  67.2762918  96.9447899  52.5495100  67.5279522  97.7963352  52.9069614
  66.6723728  96.5820217  53.1975174  46.6565514  71.7227173  59.5978880
  46.9745827  72.2060156  60.3604555  46.6042757  70.8142376  59.8948193
  54.6002674  61.3496780  16.0965204  54.2612076  60.4811001  15.8800817
  53.8214636  61.8657494  16.3047802  68.9035606  42.6417351  85.5730915
  69.1226435  43.5609484  85.4205036  68.5253143  42.6284313  86.4522934
 100.5060196  48.7365580  25.2600956  99.7723770  48.1300879  25.3610873
 101.2143707  48.1987619  24.9061966  14.3592036  98.7152004  90.5129910
  14.6915317  99.5382214  90.8713627  14.8125756  98.0360794  91.0124683
 106.5260792  62.9923010  40.4652119 106.1960316  62.2306967  40.9419250
 106.0094166  63.0130291  39.6596909  44.4810724  73.2515907  10.3820550
  43.7825632  73.8751936  10.1834655  45.2891922  73.7310123  10.1995039
  47.8821468  37.2640371  87.6639366  48.1950903  38.1621933  87.5561714
  47.9521704  36.8795443  86.7901516  89.2534065  14.9803841   9.9831414
  89.7184181  14.1437733   9.9917865  89.7547150  15.5268121   9.3778867
 108.9132309  16.8243897  56.5133476 108.3707905  17.5861418  56.7176056
 109.3844604  16.6410530  57.3260975  45.4586363  58.2393694   5.7253081
  46.2898254  58.2839441   5.2526879  45.4895592  58.9771605   6.3343537
  52.1812105  46.1221600  26.6799092  52.4404144  45.2030087  26.7447233
  51.2439108  46.1209536  26.8740821  53.7102604  33.0843496   2.4753582
  54.0260124  33.7021303   3.1348133  52.8227282  32.8645539   2.7585691
  66.1145449  65.6055975  23.7652469  67.0368671  65.8594227  23.7317061
  65.7496977  66.1229849  24.4831824  91.0490894  68.1951094  92.0825863
  91.2157249  69.1161060  92.2831631  90.5850792  67.8627825  92.8510189
  24.4147658 106.8002605  84.1897202  24.2900920 106.4255810  83.3177662
  23.7980294 106.3238811  84.7455311   1.6810434  63.7869644  12.4729979
   0.9140649  64.3580770  12.4305308   1.3556910  62.9284668  12.2021472
 103.4395695  21.6135764  89.0697575 103.0719757  20.7366157  89.1794968
 104.3813133  21.4958286  89.1942120 105.0925922  68.5706854  48.7839985
 105.3180027  69.3081236  49.3511009 104.1484642  68.6521578  48.6490631
  36.9443989  27.6513577  34.0728450  36.9056988  27.0139337  34.7858858
  36.1190629  27.5347257  33.6022592 106.6184044 102.4928951  58.4878874
 107.1930122 103.2170677  58.2396555 106.4356613 102.0392704  57.6650524
  16.9562232  60.8492851  13.9997876  16.5700400  60.9976721  13.1366098
  16.2256742  60.5493164  14.5406675  80.5486012  42.7571154   8.9596260
  80.1835823  42.8521156   9.8393810  79.9220991  42.1986198   8.4993988
  45.4469442  45.2619648   6.5668499  45.6915998  44.8842525   5.7220370
  44.9660254  44.5637035   7.0111352 103.0150509  42.3122931  16.3709402
 102.5040722  41.7767477  15.7640398 102.6871967  42.0713329  17.2373593
  59.6786690  65.9397221   9.5180255  59.7014904  65.0273323   9.2294919
  58.7817764  66.0713577   9.8254067  89.6232986   1.0401391  36.4029121
  89.3637180   1.0666647  37.3238587  89.2625523   1.8441153  36.0291314
 108.8637638  56.2772942   6.9851774 108.5317326  56.2123203   6.0897654
 108.1264496  56.6208935   7.4896950  59.6172571  82.9702187   3.6968714
  58.7570381  82.6194572   3.9275751  59.4274139  83.7093925   3.1191060
  95.0316143  77.8089285  18.7709153  94.9621773  77.6834440  19.7173107
  95.8815384  78.2314301  18.6470473 108.1905270  54.3491030  81.5361309
 108.2583904  55.1880789  81.0803318 108.9662838  53.8620949  81.2581825
  50.8836269 103.5404778   6.6901016  51.6291857 103.6202335   7.2850913
  50.7489967 104.4268227   6.3546753  49.7831154  58.1092167  24.7434974
  49.9772024  57.1724033  24.7127604  50.6197596  58.5335207  24.5531511
 101.6315746   7.9604071  89.8705482 101.6935158   8.0371475  90.8226585
 102.5158787   8.1498504  89.5569515  37.2196007  52.1215200  23.2570004
  37.8394127  52.1068048  23.9862800  36.8120885  51.2555218  23.2715011
  97.8919125  80.1653767  50.8631992  97.5858593  79.5520687  51.5313435
  98.6205387  80.6273174  51.2778568  68.4435081  10.6013632  27.1055627
  68.9097214  11.0310149  27.8226924  68.4420919  11.2477136  26.3995457
  57.9891253 100.3404713  22.0378566  57.1362352 100.4357719  22.4618030
  58.3226109  99.5017433  22.3565245  83.6942196  69.9951458  14.3567002
  83.5732746  69.5453310  15.1929235  83.8010120  70.9164143  14.5935464
  59.3611956  26.5858698  14.4002950  59.4915867  27.4485397  14.7940338
  58.8921881  26.0860443  15.0684536  59.1268730  37.9961300  83.5042667
  59.9148417  37.5360537  83.2150078  58.4224272  37.6195526  82.9768372
  71.1069632   6.9972533  30.4099703  71.4387321   7.6215369  29.7646546
  71.2790108   6.1387551  30.0231719  23.9983654  33.8178444  91.3009930
  24.9476409  33.8007355  91.4227009  23.8468122  34.5490074  90.7021046
  75.6779909  62.7319288  31.7163777  76.1932898  62.2168446  31.0955811
  75.6579924  63.6114979  31.3392925  58.9241505   0.5122619  92.4520206
  58.0965137   0.8769218  92.1385384  59.4957542   1.2726039  92.5587177
  48.6492538  56.7580271   2.6742703  47.7599669  57.0546961   2.4809061
  48.9370680  56.3243818   1.8709354  70.6015062  81.2172794  22.3725700
  69.9150991  81.6602135  21.8736863  70.2115440  81.0648632  23.2333446
   5.5671608  56.5632296  27.3352265   4.8961723  56.1522770  27.8803182
   5.1251596  57.3120785  26.9351149  84.4674969   9.7706574   3.9004046
  83.8817310   9.1678101   4.3583214  84.2906094  10.6238329   4.2966801
 101.5109348 101.1748981  16.7968905 100.9028530 101.1418056  17.5353837
 102.2351551 100.6057358  17.0572746  45.4309988  53.3627272  87.9528522
  46.1248016  53.3292627  88.6114502  44.6486998  53.0592728  88.4134483
  57.2606087  43.3867884  70.3905058  57.3989487  43.2495356  71.3276577
  57.7759409  44.1665506  70.1840019  59.3110085  34.3448520  46.2795925
  58.9458895  35.1302528  46.6870975  58.9514971  34.3460989  45.3924704
  73.6691141 106.1662865  41.5637064  73.8198566 105.2397728  41.7510223
  74.1956377 106.6309071  42.2141933  73.3088207  78.3337688  17.2463512
  72.8360653  79.0520954  17.6667607  74.1098166  78.2400084  17.7619541
  28.4674716  32.1078658  69.2248917  28.2095575  32.0589519  68.3043909
  29.2296624  31.5325999  69.2909622 104.8843098   0.3398543  32.9676986
 105.5552578   0.6301109  32.3497915 104.5611286  -0.4832156  32.6011729
  74.7975254  75.2757835   6.3141024  75.6601763  75.1899958   6.7199469
  74.5847750  74.3918943   6.0145909  71.6387558  85.9214020  38.7426114
  72.0421028  85.0631428  38.8727617  70.8198023  85.7340717  38.2838583
  85.1352310  59.4905043  12.7839577  85.0773716  59.6926117  11.8501294
  85.6702328  60.1953745  13.1488693  20.4417062  26.7332983  87.0642948
  19.5096695  26.5859485  87.2249889  20.6290889  26.2358069  86.2682915
  74.8577499  55.8956385   1.0957198  75.1592016  56.3013220   1.9086030
  75.6547880  55.5595255   0.6858531   7.5996208   4.0894589   8.6091596
   6.9944298   3.4859219   9.0401101   8.0497247   3.5523829   7.9570949
  73.6950779  45.1323414  11.4409542  73.8098526  45.9741831  11.8818188
  73.6694956  45.3513002  10.5094850  32.8853106   9.8751581  91.7114830
  32.6342654   8.9556402  91.7992020  32.5874424  10.1222920  90.8360291
  93.6289310  94.3374538  33.7534499  93.1344795  94.7284222  33.0331016
  94.1994190  95.0413513  34.0621638  79.9330282  84.9629593  20.0591373
  80.2202702  85.3478622  20.8871269  80.0504494  85.6624317  19.4163477
  10.7921028  11.3827574  89.0699959  10.6559050  10.5928111  88.5468674
  11.3306332  11.9473374  88.5155010  61.1319494  36.5611339  80.0886917
  61.4412451  36.9553614  80.9042549  60.7564878  35.7220626  80.3555584
 111.1451912  26.4499211  29.3100715 111.1602592  25.4949450  29.3735123
 111.8590832  26.6612935  28.7084746  95.0949955  61.3790798  37.9644060
  95.0112724  60.4394817  37.8019977  95.8789158  61.6370487  37.4794817
  58.0177498  73.2532692   4.2969289  58.2366419  72.8444719   3.4595507
  57.6736879  72.5369120   4.8304921  76.7724466  98.0528927  75.4056120
  76.9987440  97.7391815  74.5300531  76.2116241  97.3671532  75.7682085
  83.7660789  69.5327663  16.8676698  84.7193336  69.6186447  16.8554854
  83.4757423  70.1774597  17.5128925  72.1532440  75.8631754  17.2377884
  72.8995371  75.3119612  17.0023203  72.5051880  76.7533064  17.2431409
  60.6106806  76.6828728  15.2823639  59.6649599  76.7980337  15.1897180
  60.8976936  76.3614750  14.4276369  35.1220989  67.7799320  24.8669720
  35.0883794  68.4934235  24.2297697  35.3746557  67.0123339  24.3539023
  86.0548973  47.6907682  24.2393351  86.1778259  47.6668167  23.2903624
  85.8234501  48.6002064  24.4279861 107.4395180  48.2663202  22.2183228
 107.7203083  48.0375051  21.3322997 106.5005970  48.4334564  22.1363640
  84.9501896  86.8166161  45.5396986  84.9643230  86.5356922  44.6247578
  84.0687847  86.5994358  45.8433437  99.8017120  73.0458546  11.5405416
  99.8455620  72.0968246  11.4236891  99.8145580  73.1711912  12.4894142
  89.1799641  77.0663309   4.7535768  88.4378433  76.6677380   5.2081221
  89.0799046  76.7892170   3.8428470  45.8805513  90.0749683   4.1728508
  45.4317808  89.4884014   3.5639396  45.6085825  89.7739124   5.0398159
  16.4461887  12.0652187  11.1645317  16.7550826  12.6657879  10.4861999
  17.1274281  11.3950419  11.2193775  42.4816895  63.5236359  20.4867792
  43.2782936  63.2785797  20.9575224  41.7704582  63.1591177  21.0135698
  94.5483112  75.5657482  24.1994715  95.1331234  75.7967186  23.4777474
  95.0390911  75.7957983  24.9884224  62.2580242  72.3794937  27.4857497
  61.4253902  72.2520494  27.9404116  62.0179749  72.7987671  26.6594243
  68.7572336  84.5381927  28.7319851  69.6680927  84.8144150  28.8333201
  68.6080790  84.5469093  27.7865171  46.3783407   6.4731526  81.5754795
  45.7397175   6.5582800  82.2833920  46.0951281   5.6988060  81.0892582
  25.2507257  11.8167377  27.5362158  25.6824803  11.0942376  27.0803523
  24.9244261  11.4272320  28.3474159  47.0455265  78.7735367  19.7109699
  47.2463465  79.6957874  19.8702264  46.4488077  78.7841129  18.9626074
  79.7646332  73.2731724  20.0797248  78.9945030  72.8862762  19.6632648
  79.7191286  72.9775572  20.9889960  68.2335424  85.4882336  15.1215935
  68.1860971  85.3959942  14.1700304  67.5049257  86.0683155  15.3426206
   0.0199070  29.1310362  92.7858761   0.7025519  29.6736197  92.3911168
   0.4913321  28.3848051  93.1561905  65.0568295  77.5920486   4.5908767
  64.4195223  76.8970776   4.4262922  65.6428671  77.2274542   5.2540964
  86.4534187  82.8977394   3.8938761  87.2511292  83.2150745   3.4705544
  85.7929802  82.9113770   3.2011521  48.2397938  45.7127285  13.7796998
  47.2978640  45.8647013  13.8565516  48.6069679  46.5760326  13.5896409
  83.4703636  92.2170448   4.2711541  82.8568554  92.5390816   3.6107504
  84.0401363  92.9642963   4.4533813  47.3694754  69.9124718  18.7874734
  47.0225954  70.3189135  17.9933012  47.8704691  70.6080866  19.2133284
  67.3705864  21.2624526  53.6900377  67.4642515  21.9917488  53.0771875
  68.2694197  21.0158253  53.9080143  65.6841803  61.4692783   4.2516369
  65.3612328  61.1779070   5.1043034  65.1794720  60.9599304   3.6175507
  92.4738884  19.8227549  89.7801113  93.1183529  20.3468657  89.3045044
  92.6303291  18.9255714  89.4854641  80.4481697  49.7003555   9.3499857
  81.0588551  50.0527382   9.9973834  80.8080864  49.9752760   8.5067117
  57.9093075  89.2693424  19.6674240  58.5902309  89.9063396  19.8837757
  57.1260166  89.7982121  19.5158470  59.2978367  89.9076458   0.2463064
  58.3507905  89.8481246   0.3719720  59.6169934  89.0195604   0.4065427
  90.5038643  87.2506905  11.8081510  90.4365921  87.4373245  10.8717358
  91.4398956  87.3135281  11.9982564  91.7891598  52.9713535  12.9177511
  92.7203846  52.8336620  12.7442336  91.5601540  52.2904253  13.5503042
  20.3223395   7.1742874  81.6315651  20.5454779   6.8817008  80.7479191
  20.6264877   6.4680791  82.2016525  18.5195649  29.0232944  89.5999146
  18.0177844  28.6394358  88.8808155  18.6255097  29.9423361  89.3542194
  63.4184837   3.1525156  77.9608679  63.2595921   2.4681062  78.6109209
  64.1089296   2.7961981  77.4018002  94.6784687  98.7808132  13.2855248
  95.3639030  98.2455063  13.6853504  94.3791771  99.3533802  13.9917970
  49.3400192  68.6477375  12.2372127  49.0855360  69.5683193  12.3004663
  48.8371229  68.2123852  12.9255390   8.9905143  22.3616409  69.8275805
   8.5466468  21.8725777  70.5204248   8.2804954  22.7332854  69.3041468
  86.4161587  92.6160049  32.8340793  86.4754486  91.9843769  33.5508513
  86.5610981  93.4654617  33.2507896  19.9362230  16.5654778  62.0258522
  19.5117927  17.3661804  62.3340178  20.2993608  16.8002987  61.1719084
 113.5745430  28.6973166  78.3794785 113.7674427  28.7743855  79.3138695
 112.6465797  28.4651446  78.3448410  56.0312653  56.9867802  31.6728044
  55.1899290  56.8998003  31.2246752  56.6795492  56.7295599  31.0172153
  27.3839927  28.5175538  86.3758183  26.5288067  28.5775447  86.8015957
  27.1819377  28.4197736  85.4453087  54.2251015  68.1654215  29.7163248
  53.3833504  68.3787441  29.3136024  54.5668364  69.0073586  30.0172997
  87.8266224  75.1843544   0.2251443  87.0389161  74.6406694   0.2378282
  87.4994263  76.0776063   0.1189622  36.6321015  15.2918208  80.9348679
  35.8876181  15.3227711  80.3340149  37.3465109  14.9272156  80.4124546
  60.3047276  58.1653547  14.3972433  60.2966022  57.2196865  14.2493236
  61.2326241  58.4003592  14.3937540  42.8334284  28.8644409  89.2654896
  43.7870932  28.9391518  89.2311478  42.6717091  27.9352760  89.4289970
  50.6312513  75.6353712  33.2131195  50.8789062  76.3666153  32.6472688
  49.6818924  75.7150984  33.3058095 104.6035004  99.5969009  40.2592421
 105.5261517  99.7531128  40.0579023 104.2885876  99.0559101  39.5350981
  19.6034110  23.0255127  83.1041431  20.1646662  22.4177504  82.6226330
  19.4073439  23.7199450  82.4752140  88.8007545  69.4274616  45.2421141
  87.9640388  69.8913193  45.2733707  89.3142223  69.9034023  44.5893764
  88.5605049  81.4325237  36.7248154  88.9000511  82.2079468  37.1716499
  88.7584877  80.7081413  37.3183680  60.2721405  97.6930141  13.7307072
  60.5931044  97.7069378  14.6323836  59.4740057  98.2209778  13.7524045
 105.1916695 104.2508793  63.5444260 105.2464294 105.1800156  63.7678909
 104.2777538 104.1185951  63.2924414  76.7497873 105.5833149  25.0934720
  77.5053549 105.3031158  24.5769095  77.1046352 106.2259483  25.7077456
  56.4967108  76.1830139  29.6792793  56.1550331  77.0087099  29.3361878
  57.3806190  76.1207056  29.3172669 101.4817047  66.0045815  55.4315996
 100.6258869  65.7922316  55.8040524 101.5311718  65.4814911  54.6315002
 107.9184437  75.7359171  26.3937616 107.7163601  75.7377625  25.4581356
 108.8644886  75.5959749  26.4341903  30.7097936  65.0497532   1.3457368
  30.6003141  64.3784714   0.6722225  31.6530704  65.2101326   1.3729560
  86.6346264  86.9258213  11.2600875  86.9573593  87.7890015  11.0012496
  87.4166489  86.3742733  11.2815309  41.2141991  68.1855202  14.4849896
  40.9943056  68.5597229  13.6318481  41.9163513  67.5620461  14.2992723
  45.5699444  82.2464561  13.4475386  44.9797344  82.3345280  14.1959524
  46.4365101  82.4474621  13.8009441  33.4504485  58.9899731  88.9327717
  33.8314271  59.5873404  89.5763874  33.6016870  59.4177914  88.0899620
 103.0080509  10.7001305  40.4239559 103.2795811  11.3847113  39.8125196
 103.6023140   9.9710274  40.2464867  55.4612207 100.5775261  22.8602219
  55.1103830 101.1174774  22.1519852  54.6927500 100.3246403  23.3718181
  32.2208023  70.6698084  28.0037355  32.7633977  69.8820066  28.0382013
  31.3604832  70.3560877  27.7250528  89.7359180  12.2064149  38.4915447
  89.3770695  13.0216551  38.8420320  89.1765881  12.0010602  37.7424073
  56.2626457 100.8701229   3.8284636  55.7786703 100.7205677   4.6406418
  57.0784235 101.2850952   4.1087157  68.6848164  91.6462231  44.4673204
  67.8207684  91.5160179  44.8580933  68.7964725  90.8996487  43.8787699
  63.0251360  65.4893780  30.5156183  63.8368177  65.4610920  30.0090528
  62.3704767  65.0919676  29.9414086  40.6358814  29.5672894  76.8821621
  40.8666277  29.4012403  75.9681511  41.0947466  30.3781891  77.1015167
  79.2244625  81.4407921  19.9441957  79.3645716  81.5927410  20.8788157
  78.3049631  81.6645432  19.8003590  58.2728004  78.8655806  24.7291613
  58.5659361  78.5411692  23.8776565  57.4277258  79.2780209  24.5503449
  76.3415623  82.2091579  40.9989691  76.9600439  82.9172039  41.1789036
  75.5040312  82.5326061  41.3308716  57.1300268 100.9635353   9.5855087
  56.9634724 101.6755676   8.9678448  57.7651453 100.4032326   9.1395146
  64.4878340  52.3573971  90.3706551  64.5810890  51.5933514  89.8016453
  65.3868246  52.6243591  90.5624390  28.4771633  35.6843448  84.2927551
  29.2565441  36.2158012  84.1304302  28.7187076  35.1240015  85.0302601
  73.3548546  82.4062347  11.1636770  73.1841469  82.0045185  12.0155668
  74.2618561  82.1726418  10.9661543  87.9296017  13.7322700  40.0544596
  88.1292439  14.0865040  40.9210014  87.2807217  13.0481040  40.2190638
  80.6920433  15.5984724  53.6015320  81.4186954  15.5031860  52.9858017
  81.1096382  15.6261694  54.4623947  71.5171385  85.1545238  29.0651369
  71.3812160  86.1004257  29.1201329  72.0306063  84.9406433  29.8441362
  43.1326294  70.1486349   1.5292358  43.7521601  70.7975006   1.1954973
  43.3059168  69.3630552   1.0105199  72.5976562  88.5135460   7.1831656
  72.8509235  87.7541065   6.6584289  73.4273767  88.9248657   7.4252504
   7.6788789  40.9941101  90.2693176   8.3836865  41.5044165  90.6681442
   7.8246075  40.1006079  90.5801964  59.0745592 106.1677837  36.5982747
  58.3713818 105.5297756  36.7195654  59.8490000 105.7438946  36.9681215
   7.5338590  17.1377218  13.7796247   6.6456014  16.7860126  13.8390434
   8.0881655  16.3679683  13.6513436  60.4724264  72.0346117  49.2398739
  60.5520153  71.1130619  48.9936113  60.5151081  72.5089550  48.4095669
  45.3457165  76.3789225   0.8227748  45.6616020  77.2822905   0.8034796
  44.4504738  76.4452791   1.1549857  53.2116508  43.4971523  23.9896226
  52.7786684  44.0959454  23.3811760  53.9792585  43.1834793  23.5114813
 100.5716324  14.3887246  49.6020222 100.2703571  15.2836227  49.7589302
  99.9209690  13.8372982  50.0365353 101.6076756   6.1946964  23.7647653
 102.2009563   5.4644531  23.5886979 100.7855606   5.7783252  24.0235972
  87.7554798  89.0816689  24.8998070  87.1609592  89.6644688  24.4274569
  87.4927807  89.1633797  25.8166218  66.8800688  38.0629969   9.6962935
  67.2185135  38.4937716   8.9113605  65.9351397  38.2120442   9.6627361
  38.9816141  70.1538134  33.7156844  39.0447140  69.2032719  33.8090920
  39.4938421  70.5007792  34.4460750  46.8671942   3.4047890  90.1204395
  47.7366924   3.3640403  89.7222710  46.4105940   4.0877777  89.6292400
   6.2368554   0.6166805  42.6845074   6.3924891  -0.3244412  42.6051378
   6.6286856   0.8542037  43.5249138  72.4207020  90.0485611  36.0587668
  72.7469921  89.1606998  35.9122539  71.9029760  89.9840927  36.8612814
  42.0420980  11.6602921  90.7995129  42.9028749  11.5150189  91.1921787
  41.7605114  10.7919133  90.5116558  93.6880684  91.6334438   6.3841641
  92.7895260  91.6424274   6.0543746  93.6667919  92.2034550   7.1528459
  60.1745892  47.4694300  13.5807037  60.1557255  48.3337688  13.9915466
  60.3422451  46.8644047  14.3032444  92.1185875  72.6889610  23.4616542
  92.3744392  71.9751358  24.0457988  91.8623257  72.2531509  22.6488614
  57.0856380  68.5929632  34.2556953  56.3288021  68.5734224  34.8414016
  56.7302275  68.3624649  33.3973312  62.2694111  90.3075504  39.8369908
  62.5005341  90.9765339  40.4814148  62.6701403  90.6110764  39.0224218
  58.4520531  36.2450218  71.0311937  57.7076578  35.7413626  71.3604927
  58.0868006  37.1055532  70.8255005  39.3483019  80.6261063  24.0759397
  38.4571552  80.9451771  24.2183638  39.9026895  81.3939571  24.2148209
  95.1554203  94.3164062  38.0315447  94.6690273  93.8325787  37.3640466
  94.4931412  94.8497963  38.4709787   2.9171297  11.0543072  84.7335243
   2.1424744  10.5617595  84.4623470   2.7397516  11.9525075  84.4542313
  82.3508835  88.5050011  15.5558860  81.9842529  88.8841057  16.3546944
  83.2887363  88.6878681  15.6125355   4.7329563  77.2512150  20.9786367
   3.9120817  77.7413702  20.9323359   4.6879697  76.7871094  21.8145895
  14.0243864   3.1326443   5.7305616  13.9518809   4.0786740   5.8570611
  14.9479377   2.9886723   5.5242687  93.2307148  96.3811207  12.8497589
  93.3706474  96.3623524  13.7964892  93.6424065  97.1962547  12.5629008
  73.1546926   6.8625903  36.0309649  73.5757303   7.2796386  35.2792811
  73.7323141   6.1328226  36.2546158  57.8115749  66.3057709  24.9121523
  58.2898426  66.0821152  25.7105684  58.4658718  66.2452650  24.2161179
  84.8813725   2.9077610  26.1668348  85.5054569   2.8188866  25.4465270
  84.2211819   2.2360528  25.9959888  94.7327137  79.0801907  37.3691940
  94.5538330  79.9315119  36.9698334  95.5164528  79.2243385  37.8994894
 104.8300552  50.3850317  75.3643656 105.5723095  50.8495522  74.9777031
 104.9448395  50.4938793  76.3084030  75.2750063  96.1133766  20.5832958
  74.8014069  95.6063175  19.9238837  76.1898947  95.8544540  20.4729819
  51.5018463  72.8223181  21.2823057  51.5685129  73.1034946  20.3697658
  50.5612516  72.8025007  21.4587164  82.7900410  46.9431067  17.3737943
  82.1648693  46.2504339  17.5873113  82.2926521  47.7545166  17.4759865
  81.2498569  67.3597622  22.4561548  80.8085537  68.0654478  22.9289150
  81.3015556  66.6433477  23.0888557  66.8827200  77.7663755   2.0382144
  66.7121506  76.9070578   1.6525915  66.0587072  78.0065870   2.4619326
 109.1583538  91.0535908  36.4556932 108.9706326  90.1151371  36.4383674
 110.1093388  91.1093807  36.3621712  44.4442844   5.8861554  34.7290015
  43.6502886   5.7524985  35.2466273  44.5081568   5.1033044  34.1819239
  69.6229839  80.2343464  31.4276433  70.4272652  80.5319309  31.0024333
  69.0385628  80.9915543  31.3913226  60.2402163  83.6738396  10.4739928
  60.6992579  83.1818104   9.7932416  60.4536533  83.2148743  11.2864161
  38.9484143  34.8026824  18.5171854  39.2134881  34.8324108  19.4364691
  39.3291569  35.5921555  18.1324780   6.0611832  62.8775597   6.0263968
   6.0066253  63.0231142   5.0819027   5.1671851  63.0110168   6.3413393
  55.1121712  98.4109497  31.4725161  54.1773081  98.5963726  31.3837385
  55.3275394  97.8900051  30.6989121  56.0944700  89.8696423  38.0763364
  55.8821726  89.2460060  37.3819065  55.8622932  89.4148064  38.8859320
  22.4258232  48.2595253  88.6057949  21.8928885  48.1079531  89.3863297
  22.9566813  49.0257502  88.8233185  80.2076435  91.4633751   5.5118322
  80.6047916  91.5803146   4.6487984  79.4683504  90.8752537   5.3575796
  79.4411612  79.0121937  23.9121985  79.1346931  78.5271072  24.6783590
  80.3857708  78.8586092  23.8935757  47.7126980  21.0098624  84.0411568
  47.0380211  21.0569310  84.7185230  48.0845928  20.1327705  84.1340637
  90.5343246  66.1665678  12.9428017  90.9601021  65.4060268  13.3384299
  90.7895374  66.9011879  13.5008681  61.8606997  68.3529854  19.7565866
  61.3736629  68.8896894  19.1313028  61.8809032  68.8770533  20.5573249
  69.4008398  73.9870310  42.3043966  69.5593929  73.2247591  41.7475891
  70.1982784  74.0719175  42.8270054  46.9883680  69.2085791  10.4406738
  46.2613535  69.5193195   9.9011201  47.1125460  69.8965740  11.0944927
  75.5114651  84.3578911  17.7212715  76.2246943  84.2214394  17.0976400
  74.7614813  83.9108372  17.3289764  82.8704834  94.5122051  21.7335010
  83.6078548  95.0924301  21.9228411  83.0284119  93.7394238  22.2758031
  94.8728180  56.8764400  43.1461906  95.8102226  56.8812990  42.9526234
  94.5991135  55.9739447  42.9824352  89.7109699  69.5481157  24.5187330
  89.6781063  68.5931540  24.5752859  90.0604248  69.7244310  23.6452198
  68.3858013  48.6587572  23.8406157  69.0625334  49.3351841  23.8138270
  68.2734394  48.3960581  22.9270554  55.7503843 101.2778854  32.3980069
  55.4464722 101.1797428  33.3003569  55.7897902 100.3832531  32.0599055
  23.7244630  68.5474396  84.5497131  24.4509935  69.1068602  84.2750549
  24.0841842  68.0209255  85.2635860  80.8470631  62.4048805  30.6422901
  81.7122555  62.7029467  30.9230614  81.0050774  61.9628286  29.8081136
  88.5433674  39.6007299   2.9034850  88.7403774  40.2290010   3.5982493
  88.3078861  38.7970519   3.3670354  51.3833475  55.8178520   3.5932171
  50.5334949  55.9854937   4.0004972  52.0171642  56.2193871   4.1875878
  75.4336071   5.0861257   3.7901321  75.5474567   4.6479213   4.6334869
  76.0894632   4.6838200   3.2207146  73.3641148  94.1257954  22.5708747
  72.6818228  94.6598530  22.1640682  73.6846209  93.5667992  21.8630362
  59.2702532  76.3336039  28.9952493  59.4648886  76.5855646  28.0925512
  60.0253057  76.6399479  29.4975281  78.0441713  51.8133831   4.0251264
  78.6580563  51.6073418   3.3201981  78.1855202  51.1247158   4.6747345
  98.0612850  55.4407883  44.5836353  97.4080849  56.1101484  44.3798590
  98.8268852  55.6874323  44.0647459  60.9738874  77.1369457  62.9625320
  61.7120838  76.9461823  62.3838186  60.3431749  77.5916672  62.4042654
  92.1032333   4.3115157  20.5182958  91.5824413   3.7085012  19.9878407
  91.8550301   4.1120115  21.4209700  35.1948857  39.9833894  71.2423468
  36.0605526  39.9943852  71.6506767  35.1974368  39.1969776  70.6966496
  66.6707659  71.4304209  10.9654605  66.3637161  72.2281742  11.3962030
  66.3856030  70.7218027  11.5423274  44.1085339  14.6993518  73.8753796
  43.1803179  14.8395002  74.0624857  44.1233301  14.3523085  72.9834318
  36.0443473 102.1609497   9.2504781  35.5739117 102.3310757  10.0665534
  35.4615545 101.5870762   8.7532228  54.6000338  67.5780773   6.6372722
  54.8865747  68.4450483   6.9244814  53.6801004  67.5314379   6.8976116
  67.3856544  88.7898159  31.6468501  67.3784113  87.8329468  31.6709065
  68.0461359  89.0406513  32.2926641  89.7368240  77.4373770  29.6617794
  90.1533985  78.1953812  29.2517519  89.1408825  77.8129959  30.3098512
  82.8322220  98.9050293  75.7814407  82.2847462  98.1269550  75.8867931
  82.2288322  99.6395111  75.8941031  98.1061172  75.9700584  31.2844777
  97.8419018  75.0551748  31.3815188  99.0592384  75.9367180  31.2027407
  66.7993689  96.2115765  39.3663168  65.9011936  96.4010239  39.0949798
  66.8751240  95.2599621  39.2960644  59.6847343  55.6983089  29.5568228
  59.7082520  54.7680330  29.7810245  60.5614805  55.8861732  29.2217803
  35.0683212  57.4201679  16.1281466  35.7058382  57.9814529  15.6868279
  34.6431923  57.9949999  16.7645979  77.0212507  85.6321144  23.4753370
  77.2687292  84.7492027  23.2006693  76.3092184  85.4976368  24.1007590
 102.4142361   6.0863370  43.0966854 101.7757034   5.3734475  43.1138468
 102.0140171   6.7790562  43.6222315  98.6844921  85.2226543  38.8788652
  98.3673573  84.3222809  38.8082814  98.4583855  85.6227493  38.0392027
  76.1715221  87.7542877  49.2450142  75.6950092  88.0508709  50.0203896
  75.7522440  86.9270706  49.0080786  79.0084267  84.6542072  59.3898869
  79.7416973  84.3274689  58.8685560  79.3185377  85.4879856  59.7432661
  91.5781689  54.6818542  16.5150976  91.4764118  54.6184158  17.4647570
  91.6369820  53.7734032  16.2193024   1.2506013  25.5802107  46.2281179
   0.9787302  24.6638870  46.2797499   2.2069982  25.5456090  46.2096930
  84.6474743  95.5642033  17.9876363  84.1818237  96.2919044  17.5755000
  84.0084553  95.1802826  18.5880375   3.1788829  82.3149586  23.8066792
   2.8282017  83.0731010  23.3392668   2.5086194  81.6393280  23.7041759
   4.4945833   2.9379392  31.6963100   5.2730656   3.4716791  31.5371895
   4.2305663   3.1596917  32.5892568  75.3300333 101.5695381  39.5949101
  74.6822357 100.8675194  39.6561956  75.3743505 101.7736721  38.6607790
  72.4875498 104.7707081  49.2637157  72.1056128 105.5881500  48.9441156
  71.8416834 104.4305611  49.8828983  54.0510464  74.6116257  19.9063587
  53.7293673  74.3229580  19.0522957  53.4775305  75.3400087  20.1446223
 103.3381748  74.4452047  39.8703909 102.5186348  74.5251226  40.3584433
 103.0731487  74.4730949  38.9510369   2.3284194  13.2010818  25.7984877
   2.2221898  12.2714746  26.0004187   3.2755029  13.3398676  25.8002877
  46.8931341  98.6062145  35.2919197  46.8963766  99.3265343  35.9222913
  47.8159046  98.3732224  35.1897240  83.1018448  60.3575850  40.7382345
  82.6381588  59.8118925  41.3734102  82.5157833  61.0990238  40.5864525
  96.2068367  28.3773398  47.9785442  96.4141464  28.2807851  47.0490646
  96.6439629  27.6371479  48.3995819  95.9543800  75.6569433  26.3025713
  96.5951157  75.9701490  26.9410014  95.1125336  75.7308483  26.7520952
   9.2274708   5.6869751   2.6426163   9.6532041   5.3250581   3.4197900
   8.2909042   5.6028068   2.8214756  25.9209323   4.9153027  52.8590202
  26.8346214   4.8059091  52.5955057  25.4592109   5.1157975  52.0448637
  99.1711521  94.6474457   8.1629646  99.7980213  95.0024319   8.7932372
  98.4358501  94.3493843   8.6984313  48.0868006  16.7830622  33.9992452
  47.4831533  16.0585308  34.1632557  47.6362991  17.3289418  33.3548093
  61.5539980  36.9926834  82.8438282  62.1040678  37.4832225  83.4545898
  61.6567278  36.0789394  83.1098270  79.9667120  87.9584885  39.2861056
  79.8105240  87.1041107  38.8837624  80.0033951  88.5674572  38.5485196
  41.4046192  50.0164986  88.1823063  40.9205484  50.0399399  87.3568630
  41.0238266  49.2811918  88.6624718  76.9094610  71.6895533  23.5623717
  77.8155613  71.6129208  23.2634735  76.9071531  72.4649525  24.1236019
   6.1875564  13.5115695  49.6091461   6.5066785  13.3152914  50.4899788
   5.2609599  13.7186277  49.7307062 107.8417492 102.6340866  26.4541245
 108.7192822 102.7572536  26.0921907 107.7742195 101.6909218  26.6028643
  89.3719959  94.9876308   2.3009278  89.8741245  95.6058788   1.7700095
  88.4603310  95.1479721   2.0572317   7.4425435  84.9301147  35.3327799
   6.6533905  85.0802803  35.8532786   7.3963863  85.5827141  34.6340561
 109.4193554  89.5920944  24.6009421 108.5231018  89.3107033  24.4171476
 109.6342182  90.1900578  23.8850451  95.1541138  96.2866592  34.7782898
  95.1800346  97.0011711  35.4147053  95.2869892  96.7144299  33.9323688
  86.2678719  92.8168297  18.4663999  85.8588123  93.4802151  17.9106915
  87.1454525  92.7059650  18.1006134  93.7002087  79.7575092  29.8303413
  94.1254997  78.9128160  29.9781704  92.7675247  79.5808601  29.9533415
  93.3634090 104.4217491  27.0369005  94.2714024 104.1407585  26.9236946
  93.2692719 105.1706219  26.4481997  63.8757658  84.7543812  21.9784784
  63.1423903  85.2124500  21.5679073  63.6787033  83.8261032  21.8531990
  15.4792249 100.9479523  31.0478067  15.0033748 101.7199039  30.7413864
  16.3726068 101.0749054  30.7284570   7.4078047   6.9755328  21.1469531
   8.0968547   7.4189538  20.6521606   6.5970063   7.2214776  20.7015872
  18.7036562   1.6538762  16.7890668  19.2340481   1.4974204  17.5703716
  19.1962874   2.3069079  16.2919784  94.6693516  71.0461760  27.7714062
  95.1548386  71.6110325  27.1701837  95.1467991  70.2166462  27.7589250
  56.1619139  79.3050766  32.1743894  55.3064299  79.6958065  31.9963336
  56.7420530  79.6888494  31.5168238 111.9090939   7.1518940   8.9438617
 110.9660721   7.1950322   9.1022521 112.2780991   7.8311062   9.5084280
  69.5820141   6.7041600  11.8936288  70.4656935   6.7280632  11.5265107
  69.6530390   7.1816778  12.7201664  86.7397404  71.4341497  43.0522680
  85.9979534  71.7626095  43.5603094  86.4333248  70.6021595  42.6915169
 100.8009720   8.3192122  43.7192726 100.1074123   8.2485580  44.3751764
 100.3360939   8.3809733  42.8848219 105.9401608  24.5105600  42.0204687
 106.8100643  24.3282127  41.6651440 106.1000633  25.1095772  42.7497435
  45.6065178  96.3374615  60.0447416  46.0603619  96.7605400  59.3158627
  45.9151411  95.4315758  60.0256300  26.8629408  20.6807852   7.2427440
  26.2408781  20.1897335   6.7059582  26.6553807  20.4274130   8.1421620
  57.4587393  50.4514027  35.4982710  56.9716454  50.2758074  36.3033390
  58.2677889  49.9487877  35.5933738  86.7036915  95.0646210   1.7671292
  86.1335087  95.7876778   2.0284837  86.6531467  95.0531769   0.8113330
  53.6960936  93.7398911  12.6621985  54.0696764  93.0673504  13.2317257
  52.7763128  93.7902069  12.9223955  63.6067009  82.0558262  21.5722632
  64.3351078  82.2204781  20.9734750  63.3201742  81.1670017  21.3621950
   2.4811919   7.8288424  26.3091898   1.9242004   7.1819854  26.7422819
   1.9642286   8.6343867  26.3181186 112.9063129  16.1838055  34.0463471
 112.4491501  16.1320233  33.2069731 113.7918282  15.8739853  33.8562989
 107.2824669  21.1707878  36.4447975 106.7371941  21.9038320  36.1592174
 107.7316093  21.4960742  37.2249889  95.1543140   3.0780667  50.0194454
  94.2667580   2.7758262  50.2121258  95.6939220   2.2896799  50.0785780
  79.3445873  98.8956928  26.3274622  79.0352345  99.7793102  26.5268159
  80.2747822  99.0063000  26.1306334  80.1436996 104.1852665  56.1749697
  79.6289396 104.0820408  56.9753408  79.5528603 104.6277714  55.5656004
   0.8475710  96.0495567  30.2706909   0.0132443  96.5032196  30.1510143
   0.6503491  95.1319313  30.0828266  20.7773352  11.3152218  48.6230803
  21.4969468  11.9055212  48.3996105  21.1498976  10.7183492  49.2720604
  91.3281441 102.9697418  78.9251328  90.6537056 103.2984447  78.3307219
  90.9896755 103.1599712  79.8000526  93.7534046  84.1176510  13.3439004
  93.0695438  83.5721111  13.7324190  93.8605976  84.8423100  13.9600337
  90.3942871  73.7570715  40.7656527  89.8090267  73.0115557  40.6318474
  89.9811935  74.4749928  40.2858829  65.1328897  67.7508211  21.8607283
  65.7632303  67.2913790  22.4155378  65.3083658  68.6787987  22.0166063
 106.0047817  92.0126629  42.0418358 105.2885056  92.1667957  41.4258575
 106.2070370  91.0820103  41.9459677  93.8624954 106.0335827  56.8043995
  93.4495354 106.8965054  56.8369675  93.1299496 105.4174805  56.8004036
  54.1830587  38.0122781  76.0106897  54.0465879  38.4200859  75.1555300
  54.2746353  38.7486601  76.6153288  44.2996931  86.5991592  20.5084896
  45.2037477  86.4511871  20.2309632  44.0854883  87.4695683  20.1727080
  20.2325344   3.2837558  15.2784097  19.6341407   3.9331973  14.9091089
  21.0483742   3.7636161  15.4211342  69.0857315 105.0377083  29.9126601
  68.1841040 105.0001431  29.5934606  69.0060234 104.9693871  30.8640862
  42.6699400  15.7619500  61.9351006  42.2690725  16.4524817  61.4071798
  41.9302177  15.2473974  62.2580194   4.1733497  14.0217698  82.1379948
   3.2543182  13.9384997  82.3923206   4.1474697  14.4550955  81.2848949
  71.4370108  68.8168573  57.7607107  70.9176159  69.6040964  57.5972605
  71.6237211  68.8436604  58.6991405  82.8709507 105.2904224  78.6401749
  82.0207977 105.0717926  79.0218592  82.7244186 106.1220932  78.1895304
  96.5402985  87.1090031  39.1825294  95.8745480  87.7391338  39.4581079
  96.0681057  86.4896870  38.6260056  85.5020714  37.5672865  22.1912098
  85.4204845  36.9426656  22.9119205  86.1812305  38.1774306  22.4787784
  82.1655560  74.8256922  54.4151402  81.8389893  74.9880123  53.5301304
  81.5168095  74.2405605  54.8062563 111.1319256  79.3233538  46.9980717
 110.4267883  79.4175005  47.6385021 111.1855316  80.1794434  46.5732622
 100.6868839  84.6047592  20.3170538 100.6459808  85.3355408  20.9339166
 100.2484417  83.8843346  20.7698035  76.6154385  28.5100389  12.1326959
  77.3895359  28.8892937  12.5488329  76.8496084  28.4432983  11.2069857
  66.4343375  30.1985376  -0.3197566  66.2940806  29.7998064   0.5390653
  66.5718288  31.1272352  -0.1330748  88.9609241  17.5323868  85.1121235
  88.2808876  16.9134152  85.3779507  89.6226501  16.9909525  84.6817684
 102.4133968 104.6135998  91.6592789 101.8857956 103.8172626  91.5983200
 101.8129826 105.3179836  91.4151859  57.8874350  34.6750855  26.5405989
  57.2614288  34.0235901  26.2245250  58.6252546  34.6123052  25.9340405
  65.5185318  76.9488478  70.2419233  65.6998062  76.1578798  70.7496023
  66.0227776  77.6349449  70.6792307  58.2676697   0.6339681   6.8067741
  58.4286499   1.2766823   7.4975967  57.8008270  -0.0772858   7.2454184
  35.2288651  49.3136549  39.1476059  35.0546074  50.1071596  38.6414337
  35.8627653  49.5869350  39.8107195 104.2151356  75.0771952  60.4247856
 103.4646416  75.4498911  59.9620819 104.9583912  75.6116629  60.1452255
  74.0286589  79.9979782  76.6647720  74.8192024  80.5241966  76.5449095
  73.7405634  80.1979733  77.5554085  97.1503925  60.5303955  84.7014427
  97.0884037  60.8584452  83.8043594  97.0614529  59.5811701  84.6160316
   4.9345821   7.0330614  84.6910667   4.0323222   6.7496830  84.5432281
   4.9379942   7.9585946  84.4469166  69.2490864  45.0579929  22.5693655
  69.1528749  45.2049685  21.6284251  69.3171120  44.1072941  22.6575589
  75.7046509  43.5330915   4.4901171  76.4867401  44.0641260   4.3399003
  75.9236813  42.6756191   4.1254202  94.9719810  94.1696262  91.2138081
  94.4031620  94.5643616  90.5528641  95.1279163  93.2804871  90.8954620
  83.1238556  23.8691425  29.2555809  82.4579811  23.2169342  29.4734597
  83.6829758  23.4346581  28.6115003  28.2151031  42.9985237  49.8010302
  29.0991211  42.9144239  50.1583385  28.3429623  43.3817196  48.9332533
  93.8309765  30.9958410  24.0066934  93.5961533  30.2998018  24.6203876
  94.3680763  30.5604053  23.3447647  87.3309422 102.8850460  22.0586228
  87.9741096 102.6839828  22.7384329  87.8398895 102.9141521  21.2484670
  68.0109119  20.8809376  17.4363279  67.8963614  19.9993563  17.7911866
  68.0131340  21.4503980  18.2057047  76.1725187  40.8969879  82.5867176
  76.3585663  41.1320353  81.6776657  75.2175760  40.8484125  82.6309109
  63.2898617  28.7926936   8.8721704  63.4316444  27.8491402   8.7957877
  63.0966187  28.9315772   9.7993171  47.5725126  32.4777389  12.8482616
  48.2595444  32.4605513  12.1819866  48.0446959  32.5555825  13.6772442
  24.3167448   9.7483397   7.7160585  25.0302434   9.2231029   8.0783814
  23.5490751   9.1791105   7.7698529  32.7369666  27.5322986  17.9180241
  32.4419975  27.0065498  17.1745098  32.9022479  28.3993483  17.5476992
  96.6551208  50.9918213  87.0328331  96.6761303  51.8481398  86.6056156
  96.8395329  50.3688669  86.3298702 102.0939445  74.7634745  82.3473167
 102.2319698  74.9620628  83.2734585 101.2571907  74.2992020  82.3240280
  77.0319605  71.7970800  83.9284229  76.3784218  71.1652708  83.6285400
  77.7374268  71.7359161  83.2843685  22.6892781  26.3633609   0.4988627
  22.0911670  26.3985372  -0.2476355  22.1521163  26.6198969   1.2484491
  23.2513618  50.6212854   3.3847219  23.1004786  51.5260220   3.6584425
  23.5139537  50.1691103   4.1864800 104.1596699  78.4597445  89.3502045
 103.4753609  78.5827398  90.0080967 104.9411583  78.8500071  89.7416306
  45.9761953  14.0931904  19.0788555  45.4211760  13.8189805  18.3487904
  45.3992414  14.0649343  19.8421133  83.6651325  78.6604166  65.4916239
  82.8352737  78.2579756  65.7477808  83.8331699  79.3150377  66.1694670
  68.5705614  46.1597347  25.0047255  68.9996290  45.6847239  24.2930388
  68.5115242  47.0615578  24.6893573  60.5960035  27.5378990  24.0134764
  61.4534092  27.1983600  24.2699933  60.0802374  26.7574644  23.8106418
  97.2585106  94.0216541  81.7817402  96.6768551  93.7003708  82.4707127
  98.0692387  93.5274410  81.9029713  72.0703220  68.9251328  89.1428757
  71.6151810  69.5142651  88.5412121  71.7623854  69.1848516  90.0111771
  10.0383115  56.8337393  27.2597504   9.6766764  55.9480667  27.2919130
   9.3205893  57.3736286  26.9286513  25.4758406   8.8592201  22.5164294
  24.6499109   9.1931725  22.8664970  25.2378559   8.4625870  21.6784096
 111.6425610  85.4681587  83.5624313 110.8315849  85.2730656  83.0928707
 112.3247433  85.0280190  83.0553532  75.7504940  85.6018734  91.0529327
  75.5196667  85.6613541  91.9799709  76.6407919  85.9501553  91.0049534
  82.0844269  42.5211811   6.6407681  81.7074871  42.2246552   7.4691504
  82.9090786  42.0407772   6.5672910  11.4506245  73.0431414  81.3846970
  10.5365539  73.3245707  81.3459301  11.8824601  73.7054110  81.9242764
  71.3326550 106.2283993  82.5038242  71.1153555 105.6889915  83.2641220
  71.1548138 107.1250916  82.7876186 108.0348873  80.5987167  90.0547409
 107.4218655  81.0447121  90.6391430 107.6878166  79.7100830  89.9765587
  31.7469096  44.0431976   7.6529771  31.5190244  44.9328661   7.9227728
  32.3049331  43.7146711   8.3578986  45.0702906  16.2057233  47.3382473
  44.4160748  16.8933225  47.4625063  45.1997948  15.8375716  48.2122755
  60.9168339  29.4410825  19.9464345  61.3477087  28.8900876  20.5998731
  61.3996744  29.2746639  19.1368663  80.7932568  10.0990582  33.8262606
  81.6864777  10.0070298  33.4947181  80.8430576  10.8224678  34.4511056
   6.0346895  45.9464455  36.7061710   5.9377277  46.8731356  36.9254279
   6.9617933  45.8472824  36.4896607  63.0217552  76.4026260  90.1817989
  63.1053638  77.1038866  90.8279133  62.1786785  75.9945059  90.3790092
  81.8919182  86.4518833  88.4068966  82.6116467  85.8233356  88.4631062
  81.6915321  86.6685963  89.3174553  54.5283175  34.8529005  48.8692999
  54.8828363  34.2978382  48.1747103  54.6464872  34.3405199  49.6691322
  81.7945671  55.6654835  25.0653028  82.7293205  55.5788183  25.2522492
  81.6985893  56.5578413  24.7325563  52.1984434  28.6406326  14.6109378
  51.4072227  29.1708255  14.5155752  51.9824123  28.0092669  15.2971900
  97.9460335  10.2092648   1.5091100  97.8468513  10.7980287   2.2572744
  98.4434223   9.4670963   1.8526649  56.4938259  12.9466522   4.8559767
  57.2083473  13.2506573   5.4156870  56.0003090  13.7394285   4.6457976
  22.4781585  45.1329422  33.2042289  23.3816767  45.3057146  32.9395866
  22.5566578  44.6882772  34.0482306 100.9161186  70.2423477  91.4056396
 100.5521393  69.4876432  91.8684292 101.8320370  70.2738190  91.6819382
  89.1601467  74.5144081  86.5542698  89.9239159  73.9655352  86.3764191
  88.6291122  73.9969921  87.1596718  87.0269203  40.3316498  75.2451754
  86.5345287  39.5484662  75.4909468  87.8990173  40.0061178  75.0221920
  33.0370331 103.6815357   7.9734892  32.6314378 103.7386513   8.8386261
  33.7444282 104.3259335   7.9975885  75.7159281  40.7248449  12.8274989
  75.3866339  41.5996075  12.6211429  76.4215612  40.8766985  13.4561896
  44.5241594  51.5585375  28.2313824  44.0689707  50.9000206  28.7561560
  45.4077959  51.5881824  28.5981798  85.1383972  58.1487083  81.5572071
  84.6285725  58.9231491  81.3194180  85.7877064  58.4719181  82.1818447
  41.6849089  43.7061501  28.1050754  41.6543245  43.9636660  29.0264773
  41.9472694  44.5020437  27.6425242  68.5149765  41.1151409  25.1956224
  69.0941620  41.1738968  25.9554386  67.6468468  40.9596682  25.5676603
  90.8103657  59.6380568  51.4010191  90.0048637  59.8345661  51.8793297
  91.3755512  59.2149162  52.0473480  96.7673111  50.7859898  72.8928947
  96.3652229  51.0610962  73.7168312  97.6238728  50.4427290  73.1472588
 103.5664558  32.7941346  16.5521312 103.3799171  33.6989689  16.3017106
 104.3619251  32.5709724  16.0687447   9.5579511  99.9624157  10.3839886
   8.6219090  99.7849464  10.2914548   9.9757165  99.1082764  10.2737081
  63.6175489  57.2329617  33.7285209  64.3950272  57.7830553  33.8242388
  63.9546251  56.3948584  33.4119892  63.7175608  17.3616266  21.8431020
  64.5341587  17.6542413  21.4384103  63.3978510  16.6696501  21.2641525
  45.1700115  28.9524770   3.5626152  45.3398561  28.1253672   4.0134767
  44.4244719  29.3306994   4.0288246  22.3664021  47.9750013  23.0791569
  22.5513434  47.0650578  23.3116031  22.4655509  48.0040169  22.1275496
  19.0485942  24.9576068  38.0065227  19.7616374  25.1015878  37.3843718
  19.2764914  24.1387486  38.4467077  35.3062773  44.4670582  43.0874777
  35.2759933  43.6256599  42.6321077  36.0543895  44.3919992  43.6798716
  19.8293233  35.4187536  21.2751317  19.6798337  35.6752205  20.3651261
  20.3253627  34.6022892  21.2154770  60.1928473  43.3036089  15.9600043
  59.5055723  42.6422977  16.0409343  59.8140287  43.9744616  15.3919470
  90.7669353  76.0436201  67.4818134  90.8598709  75.3535557  68.1386328
  90.1167107  76.6406155  67.8519964  66.5307283  76.6332197  82.6759243
  67.4840975  76.7175341  82.6901722  66.2251759  77.4393749  82.2600079
 111.8292999 101.2916946  16.5316975 112.2147655 101.9319534  15.9335947
 111.1005688 100.9130192  16.0399902  35.0256944  26.4744282   6.7526019
  34.6204972  27.1558714   7.2889626  35.5530453  25.9663630   7.3690462
  60.1121569  70.0574541  18.4908819  60.6377792  70.8495092  18.3786142
  59.7042942  69.9175358  17.6363039  11.0663593  68.3832455  92.0740032
  11.0287857  67.4517584  91.8568516  10.8589470  68.4200573  93.0077362
  25.1377010  41.1243343  28.6704326  25.2943230  40.2153111  28.4147358
  25.6839442  41.6380119  28.0754638  74.1041327 105.9119034  75.5435658
  73.4448814 106.3685608  75.0209951  73.6632681 105.7207489  76.3714123
  60.0947237  43.6552620   2.8729752  60.5824661  44.4003582   3.2239363
  59.3560457  44.0495682   2.4091783  55.4104280  41.4819384   1.3478038
  54.7549295  41.7046547   0.6867812  55.2817583  42.1298647   2.0405315
  72.3884201  60.2594137   6.1965352  71.5915585  59.7372437   6.1039048
  73.1007004  59.6388531   6.0422665  91.7623615  77.6774883  84.3537426
  92.3164940  78.4484005  84.2318249  92.1915913  77.1818733  85.0511456
 100.5439568  49.7476530  47.8368711 101.2444210  50.3954744  47.9137802
  99.7476292  50.2278471  48.0638123  69.1486931  21.8671250  14.9931824
  68.6591339  21.2861633  15.5754614  70.0447893  21.5315247  15.0180101
  82.2325420  46.7895460   8.1150860  81.6208172  46.0631847   8.2351345
  81.9953346  47.1647930   7.2670561  42.6342583  34.3766999  18.2653606
  43.5886526  34.4061613  18.3323646  42.4498749  34.6269202  17.3600280
 110.8233547  94.1923237  87.4023438 110.6428432  94.9106693  88.0086613
 109.9919605  94.0447903  86.9515038  36.0796952  46.9774628  18.0884290
  35.5928874  46.1691713  17.9274452  35.7220745  47.6021481  17.4574697
  20.5782843  55.0478649  12.4316263  20.9699392  55.9126234  12.3090398
  21.0349655  54.6833944  13.1898057  53.5004997  25.9437370  44.3638086
  53.3070850  25.0233412  44.1857862  53.9606094  26.2474847  43.5813332
 101.3522911  72.2459602  85.7656956 102.1816730  72.0897961  85.3140545
 101.5918446  72.7641010  86.5340614   9.8474538  44.0414238  82.4013805
   9.7800934  44.4757843  81.5510750   9.0537983  43.5097933  82.4623108
  42.4048424  24.8310876  10.3707969  42.0942259  25.2619267  11.1671174
  42.4022675  23.8985014  10.5864584  45.5863857  14.6313536  22.6475382
  45.2645731  15.3798831  23.1499052  46.4678240  14.4762003  22.9869962
  47.9717112  66.7379999  13.9463198  47.0702600  66.4225626  13.8822186
  47.9423761  67.4103165  14.6270287  75.2263117  51.3693047  21.2273026
  74.5882034  50.8024025  21.6605139  75.7834244  50.7684803  20.7324600
 108.3940983  96.0156250  92.1597099 109.3184376  96.0885715  92.3974419
 108.0267620  96.8766880  92.3593903  66.4620447  24.5259094   5.9687221
  66.4913797  24.0441442   5.1421183  65.5464935  24.4749188   6.2433016
  36.1213279  26.1362839  49.4052553  35.9228683  26.9475389  48.9375925
  36.7723989  26.3900638  50.0594234  38.9997387  25.4105353  21.3631725
  38.0619621  25.4534626  21.5501571  39.4174623  25.7527208  22.1535206
  27.0279956  41.8892241  69.1821766  27.6308513  41.6130114  69.8724699
  26.3490200  41.2145853  69.1730785  40.8569670  26.1945295  73.9285707
  41.1469793  27.1059394  73.8903809  41.5644932  25.7368779  74.3826580
  72.8020763  54.4589663  23.4743118  72.7624178  55.3780365  23.2097793
  72.0189524  54.0650749  23.0898738  45.5198574  34.7502708   4.2527890
  45.2380610  34.4312096   3.3954546  45.0829697  34.1727304   4.8787349
  73.1309175  50.2876997  25.2365804  72.3497152  49.7445917  25.3413987
  73.3652544  50.1945496  24.3131971 103.2095814  78.8103104  67.2380209
 102.6047993  79.4308567  67.6447058 103.8642216  78.6357307  67.9141855
  20.9716821  76.7452621  83.6282158  21.2798715  76.1210251  84.2851639
  20.0725913  76.9439030  83.8897800  47.0445156  35.7902074  27.3806334
  46.9971561  35.6098628  28.3194971  46.9668007  36.7420125  27.3153567
  83.0427551  56.4826059   8.4581405  83.2717037  56.4476013   7.5293851
  83.3452988  55.6458759   8.8111043  73.6346245  41.6915989  30.2930856
  73.5758734  40.9350872  30.8765841  72.8330374  42.1868753  30.4615974
  62.0749140  29.7885466  32.4603534  62.0720339  30.4107499  31.7329693
  62.7206230  30.1398158  33.0734587  21.7767572  36.4041686  11.5995765
  20.9002256  36.0637259  11.7785335  22.2954845  35.6289864  11.3845205
  85.3797913  92.8291798  92.3203278  84.9841595  93.6254025  91.9657326
  85.8587646  93.1241417  93.0947971  74.2773294  30.2711225   3.1482053
  74.4322920  29.3977809   2.7883503  75.0044632  30.4128909   3.7543517
 101.2456703  47.8656816  67.8651667 101.5159416  46.9746828  67.6430988
 101.5988636  48.4062338  67.1585608   0.3658646  56.7628193  70.8122540
   1.0929167  57.3515844  71.0147095  -0.3392731  57.0436382  71.3954830
   2.0070624  91.9833565  90.1839066   1.6255803  91.7320728  89.3427467
   2.6304698  92.6764679  89.9666691  97.3038673  99.8853397  85.2799034
  96.3493443  99.9415684  85.2357769  97.5352669 100.3619194  86.0771275
  56.7353821  38.3748960  29.3339634  56.7178440  37.4948502  28.9578748
  56.3508177  38.9322019  28.6573887  26.4927697  47.2150278  38.4936833
  26.3168001  46.5858936  37.7940679  26.6746187  46.6740417  39.2621231
  83.1866646  65.3965759   0.0221219  83.8688469  64.8691273   0.4376441
  82.3690510  65.0689888   0.3968632  67.0328283  57.4926472  39.3802714
  67.8355694  57.4828386  38.8589787  66.9587421  58.3956671  39.6889830
  78.0036354  54.2329168   9.3692625  78.3029413  53.4599018   8.8906223
  78.5421324  54.9479532   9.0301818  83.7174797  37.4879718  32.0061278
  84.0752506  37.5937104  32.8876328  83.3611202  36.5996242  31.9972444
  96.8979740  76.7419052  74.5683861  95.9424877  76.7648125  74.5159721
  97.1042728  75.8324671  74.7842407  55.5563641  15.3997779   3.7360838
  56.2297535  16.0650933   3.8779622  54.8274422  15.8773983   3.3401194
  95.5029869  99.7709846  77.7548790  95.9825134  99.1805267  78.3359480
  95.9416485  99.6827793  76.9086933  55.1366901  41.1199903   5.9177130
  55.9381866  41.5468979   5.6150824  55.1003981  41.3149309   6.8541497
  82.0230675  61.8566227  27.8910327  82.5869370  62.5760746  27.6070023
  81.8538475  61.3556004  27.0931768  76.3015699  27.6362252   9.3188292
  75.4700804  28.0897331   9.1803193  76.7543793  27.7041793   8.4782481
   7.4758917  88.2406521  88.5433006   7.7337021  88.8101387  89.2681789
   6.8537045  87.6255322  88.9315701  62.0854902  18.6671507  26.4853024
  62.6229954  18.7220502  25.6951737  62.4375820  17.9159665  26.9627833
  56.1856127  39.6132612  31.9801736  56.0920382  39.1692948  31.1373377
  56.1884785  38.9055443  32.6246595  84.0894985  46.2668610  14.9620485
  84.0898418  46.0826826  15.9013617  84.1204548  47.2218704  14.9052191
  71.5624857  72.6276350  75.6456280  71.4592791  72.4920845  76.5875435
  70.9038353  72.0580912  75.2480984  71.3052702  96.9897366  81.3404083
  70.6945705  96.4077759  81.7927361  71.6201782  97.5831699  82.0222378
 100.9869385  97.2883701  84.2693806 101.9155216  97.1805000  84.4751549
 100.6930161  96.4116287  84.0220547 101.2808132  76.9578648  63.2213116
 100.8116913  76.1252260  63.2749414 101.3341904  77.2615004  64.1275024
  40.2802706   8.9818281  18.4199512  41.0998678   9.0648425  17.9325068
  39.7009325   9.6348953  18.0273950  64.3253040  25.1487803  18.8698530
  64.1744995  24.2518902  18.5713899  63.6191177  25.6562495  18.4698451
  82.7288055  66.2065029  60.5343342  83.5531616  66.5199566  60.1622868
  82.3707390  66.9647264  60.9959841  14.4693732   5.9947544  15.9667099
  15.0378752   6.2371147  16.6976666  14.4324267   5.0388044  15.9987605
  93.7902451  41.3151646   1.0619249  93.9579105  42.0819044   1.6098619
  94.5432472  41.2727213   0.4724983 101.5868378  94.5989323  88.5512829
 102.4315453  94.2364025  88.8182449 101.5162086  95.4223537  89.0342140
  67.9545546  34.7531819  14.0727937  68.0770493  34.0215015  13.4679210
  67.6228619  35.4642415  13.5245180  80.5926323  26.9026494  26.5032387
  81.3947678  26.7467117  27.0017362  80.2369213  27.7125120  26.8690515
  70.7631636  39.2779851  13.0254078  70.9974098  39.0500402  12.1257412
  70.6927299  38.4360051  13.4752297  60.1294327  35.7238507   4.9565238
  60.3294516  36.2096095   4.1563600  59.7880983  36.3847685   5.5589426
  92.4067879   2.8264639  61.5186024  92.2589302   2.9192847  62.4597454
  93.1373596   2.2117753  61.4504051  91.1569500  72.6123857  37.2048950
  91.4465046  73.2988262  37.8058934  91.8670654  71.9706059  37.2143340
 103.9649773  30.8571815  13.0243874 103.8263988  29.9769974  12.6746678
 104.0001869  30.7351518  13.9731240  65.9265757  23.2560372   3.5344639
  65.0449562  23.3519340   3.1742135  66.1360645  22.3301435   3.4117141
  65.7031298  57.5937271   2.0086448  65.6348515  58.5410213   2.1278243
  66.4033890  57.4831009   1.3655035  38.9332342  63.3026981  11.7043650
  38.1105685  63.0481863  12.1223104  39.6085072  63.0629444  12.3389959
  96.4624691  52.1604919  64.4677877  95.7414532  52.7487230  64.6921921
  96.0955143  51.2822628  64.5692205  82.1593761  23.3541131  22.9109812
  81.6024590  22.7455616  22.4254489  82.0576000  24.1888332  22.4536920
   8.2319015  94.3168449  77.7922010   7.7514195  94.3413067  78.6197090
   8.4129167  95.2354431  77.5931025 113.4615803 106.8533134  90.8331013
 114.1677475 106.9083309  91.4769363 113.8518238 107.1772766  90.0213146
  24.5422149  88.1693935   9.4481182  24.6707416  88.1354141  10.3960407
  24.0100956  88.9523411   9.3064713  73.5389757  18.4254491   2.6572219
  73.5952950  19.0636408   3.3683985  73.9545631  18.8596916   1.9122680
  61.3447046  43.8080359  39.1976857  60.5314112  43.5895729  38.7426472
  61.5770054  44.6766186  38.8693094  72.4718714  36.1453342  12.3325598
  71.5516376  36.1278224  12.0696962  72.9294109  36.5166330  11.5782225
  29.8176193  52.7661514  63.7425804  30.6380677  52.8227043  64.2323732
  29.6982121  51.8300009  63.5826063  59.1536760  31.2003493  70.0266504
  59.5857239  30.9027529  70.8272791  59.1033888  32.1515608  70.1210070
  60.0547981  43.1124878   8.3786607  60.4811335  42.3169136   8.6973059
  59.1856003  43.0952883   8.7791908  97.0290470  23.2151175   1.8166281
  97.1783352  23.9000654   1.1648706  97.3176193  22.4094677   1.3878068
  49.1451597  51.2168932   0.1476923  48.9150381  51.3984966   1.0588976
  48.5857964  51.8030310  -0.3619949  14.3419683   0.9613492  73.1306648
  14.8609877   1.7503399  72.9746389  14.9639380   0.2411589  73.0271673
  60.2366304  80.3297234   2.1028236  60.1209402  79.6618795   2.7787215
  59.7245932  81.0763264   2.4136882  26.9180846   3.7589613  90.1985359
  26.0033751   3.9623946  90.3938770  27.3641109   4.6052241  90.2321529
  45.8138084  67.2956038   1.0492922  46.7703724  67.3008966   1.0148648
  45.5407286  67.4329090   0.1422046 105.3453541  83.2048416  89.6567440
 105.9027100  83.8431454  90.1018906 104.6646214  82.9943371  90.2958965
  92.7471161  22.1564913  32.0907331  92.5381088  21.4862800  32.7414012
  93.7014389  22.1327734  32.0204973  72.4490070  23.7021232  25.5772018
  72.0171976  22.8732347  25.7838774  72.3386049  23.8004208  24.6314836
  56.0440207  35.4271197  40.5093670  56.9079351  35.2539229  40.8833838
  55.6535196  36.0733795  41.0976601  26.0413265  96.4984703  58.7193632
  26.1542130  95.6913471  59.2213917  26.4165592  96.3011932  57.8611565
  48.5281420  23.6268401  32.9992247  49.1274166  22.9036999  33.1840682
  48.8102913  23.9599514  32.1473670  41.4084816  47.4990845  21.4520979
  40.6021595  47.0173597  21.6365242  41.6052103  47.2956419  20.5376911
 104.7135448  75.1703596  67.9537678 105.4509735  75.6614542  67.5914812
 104.9225426  74.2544270  67.7704191 112.9907990 101.0457802  80.0770664
 112.9261684 100.4997921  79.2935181 112.5310421 100.5489159  80.7538128
  48.9658976  36.8873596  23.7191987  49.5614290  37.4697018  23.2475543
  48.2212973  37.4425650  23.9506078 107.0626545  78.0688953  89.3771744
 107.9862309  77.8292847  89.4534206 106.6904831  77.4060583  88.7954807
  78.9031506  68.5393047   4.6817669  77.9751348  68.7543297   4.7754899
  79.3624592  69.3075609   5.0209540  69.4489479  81.4071178  35.0761628
  69.9734879  81.9790363  35.6365228  70.0412703  81.1581802  34.3666482
  24.5289350  10.6992555  87.2587585  25.4816961  10.6714296  87.1709919
  24.3692088  10.5370295  88.1884956 113.1653214  74.9049330  68.6303043
 113.7285042  74.2665339  69.0679169 112.3575974  74.4253826  68.4463215
  81.0933495  38.4668398  31.5540242  81.1634159  38.1699181  32.4613047
  81.9954109  38.4737420  31.2339306  97.8507137  63.9346075  73.5728407
  97.7415848  64.8640633  73.7739182  97.2507763  63.7751245  72.8442335
  82.5644016  70.3818321  27.8384018  83.0699730  71.1718273  27.6472545
  82.7743053  69.7837496  27.1211338 104.8526478  65.4950142  85.5679798
 105.3626347  65.4215240  86.3746643 105.3398037  64.9754667  84.9284649
  68.6926985  99.9101448  69.0880299  68.6563540 100.8665943  69.0771151
  68.5519409  99.6546936  68.1763506   8.7407410  16.8546653  72.2382355
   8.4157008  16.2342334  72.8906536   9.4030547  16.3647151  71.7508745
  59.7346067  55.5188322  14.0117180  60.1823950  54.7205734  14.2919075
  59.1399527  55.2295446  13.3196688  77.9588175  86.3785648  77.9463339
  77.1183825  86.0548401  77.6221371  78.3396006  86.8440056  77.2016144
  54.8074865  10.9540164   3.9441580  55.4578543  11.6556311   3.9756262
  54.9397278  10.4681611   4.7582150  58.1231499  43.1555939  26.1080217
  59.0337133  42.9179764  26.2830567  57.9230976  43.8311195  26.7560053
  46.4705229  60.3511333   0.3218904  45.7548475  59.7196579   0.3945979
  46.0364199  61.2040424   0.3033898   5.1974154  82.6470566  89.5183468
   4.4841331  82.6056290  88.8813686   4.8779616  83.2413197  90.1973343
  61.5208912  29.3051410   6.9972354  62.0465755  29.0959096   7.7693164
  61.0194588  30.0797892   7.2516346  83.5383701 105.4214096  82.2961617
  82.5969791 105.3822708  82.1273518  83.8019085 104.5067120  82.3966599
  61.0909128  70.1709509  83.5076141  60.1986361  70.1723719  83.8541317
  61.5115404  70.9221029  83.9260292  82.1656704  54.2592192  33.0894709
  82.1327972  54.8768806  33.8199806  82.9565716  54.5004511  32.6072669
  92.8990364  79.4930172  87.0870018  93.5229111  79.7458649  86.4064980
  92.5494576  80.3228188  87.4117374  87.8614044  31.1235428  34.3573189
  87.4783230  30.9715533  33.4933853  87.5941086  30.3639650  34.8748398
  38.4046698  10.9966421  90.4553413  37.4968553  10.9080791  90.1650620
  38.6257744  10.1378596  90.8156681  63.5070324  47.2169161  14.1197741
  62.7326632  47.1240664  14.6747184  63.4528351  46.4825964  13.5081613
  48.3144903  19.7252023  26.7436981  48.7276030  20.5229068  26.4131880
  48.9713907  19.0420330  26.6095734  12.0081007   1.5132162  72.1628237
  12.8385293   1.3785663  72.6194286  11.7160475   0.6314082  71.9318438
  89.1846466  87.3414707  82.2181892  90.1035881  87.0938683  82.3205757
  89.0773201  87.4799252  81.2771606  72.1123552  14.3168414  32.7711320
  72.2933531  14.0933013  31.8581700  72.8531551  13.9552474  33.2576513
  19.9481976  60.4931784  41.5205574  20.3814793  59.7419262  41.1154413
  20.5603170  61.2184811  41.3961411  24.2097116  19.5989001  81.7773533
  23.4536862  19.5995152  82.3644352  24.3749118  18.6727881  81.6005611
  74.8100805  20.9013462  18.4696496  74.7220850  20.7265687  17.5326645
  74.5456600  21.8159652  18.5685575 109.6722221 106.6313934  42.6710796
 109.7699356 105.8191013  43.1679344 109.9909592 106.4158726  41.7946148
  46.9783306  27.3953700  23.3896184  46.8711567  28.3139300  23.6365843
  46.2911081  27.2397900  22.7417374  74.0732288  59.5788431  28.1637883
  74.2347860  59.9758291  29.0196705  74.6831751  60.0229931  27.5747776
   5.1485395  99.0526295  91.5294838   4.9142247  98.9837837  90.6039619
   5.9520459  99.5728016  91.5350723  12.6895344  40.6892872  87.5231457
  11.9713950  40.7277584  88.1548309  12.2565556  40.6493521  86.6704082
  63.3927488  35.1659560  25.4182291  62.9947996  35.9087110  24.9641585
  64.3292761  35.3636837  25.4257894  84.2173004  30.6526494  10.5402327
  84.4487286  30.4040647   9.6453142  83.3269596  30.3215528  10.6581414
  82.8919220  41.3441944  18.6551547  83.7300491  40.9662247  18.9214396
  82.2911739  40.5994844  18.6279690  97.8187656  34.1728687  30.5125284
  97.5366497  33.3538246  30.1053309  98.3666039  33.8984680  31.2479234
  49.7022963  35.3921008  19.6071899  50.4328060  35.8852577  19.2338395
  49.9780893  35.1966572  20.5027175  59.1134834  40.2294588  20.4797935
  59.5658636  39.3859625  20.4897666  58.4336281  40.1287603  19.8135459
  81.5429211  40.2500534  12.3508883  81.1370659  39.3912458  12.4690449
  81.9787407  40.1940489  11.5005064  96.8113708  32.9268575  18.6044586
  97.3618126  32.5610781  17.9120302  96.4646721  33.7374806  18.2317352
  59.0137482  13.5839701  20.4994845  58.3360481  12.9209185  20.6310773
  58.5399151  14.4156241  20.5074739  66.3687038  51.4399290  43.8860178
  66.1638832  50.6413460  43.3996582  67.3208046  51.4235687  43.9833117
  74.5119429  57.8700352   6.4585924  75.3079462  58.3744287   6.6265208
  74.8259783  57.0369911   6.1069489  10.7367861   5.3104019  73.6154985
  11.3444424   5.7623446  74.2009306   9.9344730   5.8309597  73.6547947
  54.9806786  72.8434420   7.9030377  55.5184031  72.9437637   7.1175343
  55.1468468  71.9468546   8.1941491  79.2816067  76.5524101  16.7994368
  79.9880934  76.5931702  17.4439847  78.8014174  77.3718834  16.9182575
  53.8485861  69.1729879   2.7680710  54.6545839  69.5387506   2.4036251
  54.1417789  68.4415579   3.3114702  46.2622309  32.8158116  53.3680010
  46.0344410  33.0516124  54.2673016  46.3044786  31.8595648  53.3745050
  41.5500116  69.2527056   7.4012858  40.5955791  69.1827488   7.3813951
  41.7738342  69.7071362   6.5891099  74.6306086  68.1511450   1.5271865
  74.2671967  69.0300274   1.4188638  74.1694069  67.6196194   0.8783379
  99.5079613  93.5560894  70.7211208  98.7927151  94.1380787  70.9779167
  99.1680241  92.6751518  70.8780718  88.3042526  84.1535187  90.3675747
  89.0544033  84.5206642  90.8352375  88.0746174  84.8213387  89.7214222
  68.6461639  67.9385424  14.4887364  68.4552479  68.5294199  15.2171898
  68.5930729  68.4930468  13.7103164  31.8152809  26.2863159  15.6497777
  31.9889545  27.1736693  15.3356576  31.8062949  25.7492447  14.8574984
  55.2065563  25.0279808  33.2098103  54.7373009  25.7768154  32.8420115
  55.5746555  25.3555560  34.0304375  76.9272041  20.8093619  31.0258555
  76.1279774  21.2121439  31.3653255  76.6589689  20.4021263  30.2021813
  62.5835752  51.5749407  21.7870855  62.5029707  52.0175362  22.6319790
  62.0636654  50.7771158  21.8840766  83.0017090  35.1372313  24.0976167
  82.9351425  35.7685995  24.8139787  83.9425087  35.0022388  23.9839840
  76.9619274  28.7650752  17.9918158  77.7057886  28.5291815  18.5461223
  77.3589420  29.0898633  17.1836543  65.5918312  62.8944445  10.1587415
  65.1855803  62.0812225   9.8589641  64.8628855  63.5088444  10.2446544
  31.9467497  39.2665434  18.0029655  31.1770368  38.9050865  17.5635064
  32.2780991  39.9304342  17.3982441  26.3706517   5.4617655  79.3798590
  26.8741322   5.2482653  80.1654530  26.6458297   4.8104399  78.7346554
 100.4577255  72.7970457  76.6155434  99.8625374  73.3614254  76.1221266
 101.2048626  73.3588266  76.8215179  98.1659508  80.4261780  83.9263248
  98.6594963  81.0915184  84.4058800  98.0717945  79.7038555  84.5473099
  79.9997091  99.2801380  78.0029726  80.3610134  98.3947372  77.9609442
  79.3342018  99.2349148  78.6894703  25.9738898   3.4774297  72.3442411
  25.4676986   3.2688031  71.5590811  26.1292958   4.4201055  72.2855616
  95.2179527  96.9630241  81.0422421  95.9102821  97.4552727  81.4833736
  95.1408958  96.1533546  81.5469456 106.6781521  47.5918961  36.2061834
 106.4883709  46.6667461  36.0502529 107.2222137  47.8533077  35.4632926
   0.8966494  18.3494937  70.0308132   1.2232533  19.1023564  70.5235195
   1.6850081  17.8719079  69.7726774  62.4300909  78.2421255  52.9453707
  62.7347946  77.5640631  53.5483837  61.7240858  77.8243542  52.4521589
  64.2404366  52.5791216  15.5936944  63.9934158  52.7909231  16.4938903
  64.7556114  53.3317804  15.3032970  69.9054337  32.3329473  32.4486446
  70.4747868  33.0059457  32.8216648  70.4723310  31.5682054  32.3485017
  63.8010168  12.7697241  25.7044506  63.6088419  12.7431428  24.7671175
  63.2354355  12.0972323  26.0840654  37.9608059 101.8502426  19.6362209
  37.3889518 101.4822006  18.9626002  38.8343024 101.8315887  19.2452157
  58.7160015  78.3368969   3.3162192  58.5330200  78.7297249   4.1697031
  59.0965223  77.4830723   3.5221702  67.0495129  76.3696241  19.2269766
  67.7999258  76.3047743  19.8176622  66.3316774  75.9546518  19.7052395
  97.5168037  88.9087200  78.6905909  97.9015160  88.1909180  78.1876230
  98.1081772  89.0238857  79.4343948 103.2176018  91.2648964  80.4187107
 103.5248470  91.5186024  81.2890339 103.8295174  90.5846405  80.1375675
  52.5143003  21.4169407   2.4922858  52.7570486  20.8112383   1.7919758
  52.5006294  22.2765517   2.0714366  94.7065639  37.8618908  15.5812073
  93.8780975  37.6404214  16.0064554  95.3763485  37.4774671  16.1467445
  59.1760302  37.0555282   7.2461098  59.7447348  37.0133829   8.0148983
  58.3142042  37.2788811   7.5976694  30.5033994   3.3137673  89.9049664
  30.7143879   2.4121192  90.1473427  29.7439933   3.5352153  90.4439449
  86.8021011  25.1152301  23.0233788  86.1535549  24.4208932  23.1396484
  87.6260853  24.6510434  22.8756809  47.5211525  35.8627582   1.7139709
  46.6125584  35.9004021   1.4151879  47.9093838  35.1471853   1.2105209
  51.7914391  37.4307394  16.0548067  51.7325640  38.3456373  15.7796288
  52.7300406  37.2695112  16.1510730 106.6935539  95.9076977  84.8759460
 107.0809937  96.7828083  84.8931789 106.5173721  95.7419586  83.9498138
 107.4338055  68.1106186  36.6575074 107.2414684  69.0321684  36.4843535
 107.2501659  67.9987717  37.5902438  65.8021164  21.5754461   9.7227055
  64.9570942  21.2162375   9.4522744  66.2776899  21.7118335   8.9032769
  88.9104843  42.2833300   7.1337318  89.2272091  41.4049959   6.9229019
  89.0997887  42.8005266   6.3508534  46.6195822  45.3753138  77.9327774
  45.9735775  44.7967291  78.3379364  46.7946911  44.9785185  77.0794773
  46.6315508  54.3788671  26.1513209  45.7428837  54.7138691  26.2708020
  46.5115595  53.5228825  25.7400751  46.3928223   9.5288044  69.7343969
  46.4941359  10.2017450  70.4075384  45.7927036   9.9159807  69.0970755
  83.0670547  76.0719967  13.0500126  82.2487068  76.2393045  13.5175014
  83.2968616  76.9154119  12.6600420  24.9556541  29.4975710  87.7794838
  24.1458607  29.0057302  87.6432514  24.6673656  30.3994608  87.9198933
 106.3849831  41.2746048  62.5565720 105.8693790  41.5013504  63.3305025
 107.1168137  41.8914890  62.5671673  61.1738157  75.5328131  12.8841913
  60.4863882  75.3112936  12.2560143  61.8608952  75.9373951  12.3545992
 110.1280022  32.5659394  73.0264139 110.0058556  33.0532193  73.8411951
 109.7637272  31.6996908  73.2084846  73.6450100  59.6075678  24.4464827
  74.0640831  58.7700129  24.6442556  72.8618526  59.6193695  24.9967194
  84.0380955  99.2922115  54.3852663  83.5825062  99.0551949  53.5774994
  83.4728336  98.9635468  55.0843382  51.6437721   0.7634323  85.7651615
  51.3489485   1.5209749  85.2597523  52.5822401   0.9072613  85.8869171
  76.9370747  45.3382492  14.3391621  76.8139553  44.7098923  15.0506711
  77.6955414  45.8573246  14.6065974  91.3560009  73.0517673  85.5169678
  90.8357620  72.6047134  84.8493385  92.2164917  73.1657791  85.1135063
 100.3816032  49.1101265  13.2627833 101.0299778  49.2592525  12.5745964
  99.5514774  49.3848467  12.8733492  99.6682262  75.3769588  88.9820671
  98.9764786  75.3107786  88.3237839  99.5441151  76.2414455  89.3738461
 111.1275768  86.3691521  74.4581795 111.2631035  85.8752537  75.2668333
 111.4172459  87.2569370  74.6683455  66.1683369  87.9968452  10.1110041
  66.7995405  87.3639488  10.4534364  66.6857576  88.5679150   9.5432097
 106.5317154  91.3925362  91.4078140 105.6098557  91.1913967  91.2467575
 106.9972706  90.9821796  90.6790543  67.3679066  99.3015671  16.2896812
  67.4743462 100.2518940  16.3318634  66.4213371  99.1685867  16.2391853
  45.0732851  58.1093121  22.9821038  45.6958961  57.4466276  23.2811618
  45.5740166  58.6500740  22.3713040 111.3968086  90.8254147  85.5222607
 111.4667892  90.2365971  86.2736797 112.3018742  91.0585308  85.3155327
  88.0983925  60.0059175  28.7851644  87.7267838  59.4648123  29.4818354
  89.0313244  59.7917843  28.7873960  77.6611614  59.9500561  38.3907604
  77.7348614  59.9366808  37.4364972  77.3457098  60.8305597  38.5943079
  67.0869207  34.5566392  28.2850051  67.6685095  34.0483379  28.8503504
  67.4964619  34.5151138  27.4208379  25.9702992   8.5539180  79.9296951
  26.9179440   8.5277027  79.7973585  25.6730604   7.6713526  79.7084284
  71.0737801  28.4079647  27.6659536  70.6928921  27.6530838  28.1146312
  71.9269323  28.5289335  28.0827618 111.4139080  98.8003445  86.4018726
 111.3146496  99.6999741  86.7133904 111.4038944  98.8748264  85.4476261
  90.6702042  95.1703167  65.0566721  90.2791023  95.0859833  64.1871023
  91.3022423  94.4531155  65.1056099  80.2825165  81.4955425  28.5413837
  80.5996895  80.5931568  28.5048652  80.4710388  81.7796707  29.4357896
  95.2539539  81.9093990  75.3468752  94.6937752  82.6213455  75.6560183
  96.0857201  82.3334885  75.1357985  53.7251949  22.7364993   6.7418373
  54.3584871  23.3171248   7.1637863  53.7056875  23.0258393   5.8296233
  89.8850346  89.3497086  16.8610561  90.5314827  89.5988655  16.2005603
  89.0830803  89.1906357  16.3632584  42.0496511 105.5970192  91.5654564
  41.5476131 106.0421562  92.2481346  41.6081953 105.8346367  90.7500553
 110.9516716 105.9070778  50.0639915 111.6399193 106.2900257  50.6079626
 110.3449249 106.6294003  49.9017096  32.4020338  46.9222212  53.5907316
  32.3220873  47.1026325  52.6540947  33.0278063  46.1997843  53.6429405
  69.0759468  17.5293362  89.7169209  68.9243889  17.4534261  88.7748432
  69.5225382  18.3695817  89.8207283  73.7662172  60.9790516  30.7364678
  73.1290436  61.3888645  30.1514125  74.2113829  61.7139769  31.1582971
  66.9109869  23.2792997  28.3749819  66.6409874  22.4874878  28.8401341
  67.8663778  23.2271433  28.3478832  81.6971111  60.2918577  10.9513366
  81.6588116  59.6370077  10.2542484  82.0343018  61.0785055  10.5227065
  81.8698502  42.3334360  13.8886821  81.3096905  43.0351210  13.5568833
  81.7848492  41.6329908  13.2418561  27.9097342   7.3072517  84.3710327
  27.0576715   7.6457256  84.6460915  28.5249853   8.0108213  84.5776463
  46.0257244  90.7821465  18.7442136  46.6828394  91.3711452  19.1150415
  46.2297392  90.7538319  17.8094363  27.7871180  21.9627118  89.4923210
  28.6402106  22.3408222  89.2790318  27.6232028  21.3311410  88.7919807
  51.6452312  77.3228121  17.7294171  51.8234205  78.0816555  17.1738648
  51.4680386  76.6115952  17.1137857  90.4893208  45.0632143  26.9930840
  90.1193714  44.7046757  26.1863470  89.8286724  45.6814337  27.3054624
  45.7817888  61.4244318   9.5861763  46.0723639  60.8283901  10.2764916
  44.8885822  61.6619778   9.8351467  61.9089985  49.1748047  15.8061039
  62.8655291  49.2102671  15.8012497  61.7036295  48.2911348  16.1113644
  51.5922499 106.0865879  44.8695517  51.0677624 106.7842007  45.2626038
  51.3454771 105.2991390  45.3545856  84.7239780  42.8469372  10.2042222
  84.8757553  43.7919474  10.2162313  84.6213341  42.6326036   9.2769909
  79.7574854  56.7273474  21.3593173  79.2157078  57.4323273  21.7138743
  79.1700840  56.2421608  20.7798457 111.1974144  42.6453018  64.4800520
 110.9077168  41.8295908  64.0714931 111.3332367  42.4174690  65.3997660
  69.8259878  79.9924040  45.0799370  70.3361225  79.9746847  44.2701960
  70.4561186  80.2456379  45.7545042  84.3651390 104.1925907  47.9590130
  84.7306156 103.9733601  48.8161039  83.6976528 104.8529434  48.1450558
  48.7307262  48.3513641  12.6717889  49.1365337  49.1947079  12.4709928
  47.7898741  48.5207033  12.6233065   1.1912630  40.7934904  91.9706726
   0.3377360  40.3602219  91.9712257   1.3791244  40.9537363  92.8954697
  45.1145124  46.4872169  14.0511417  45.1796722  45.6279993  13.6343300
  44.2328119  46.7915058  13.8360786  40.8541489   9.9259931  85.2310181
  40.5107355   9.2151529  85.7723141  41.6153193  10.2483261  85.7136726
  76.3447571  48.2822561   5.4634172  76.0683966  49.1879320   5.3233826
  75.5397844  47.8194332   5.6958973  33.6474299  55.1878071  16.9763637
  34.1302204  54.7408056  17.6715875  34.2080164  55.9236717  16.7304361
  57.0125484  82.2249603   4.1156900  56.7194223  82.0228100   3.2271835
  56.2313652  82.5611782   4.5549461  37.5660968  16.5454459  76.4927673
  37.5591516  15.6171513  76.7261171  38.1389570  16.9516361  77.1432066
 106.6268349 100.5180168  67.3045063 106.5294170 100.1187801  66.4400148
 107.1191692  99.8729229  67.8121376  17.6239407  97.7267456  86.1396694
  18.4046638  97.7554131  86.6927338  17.0526421  97.0870972  86.5647602
  57.1286154  67.3422480  17.3118830  57.6724291  66.8568850  17.9323006
  56.3177538  67.5167942  17.7896559  56.7690945  42.1688271  80.0898743
  56.2382317  42.1451283  79.2937183  57.4455690  41.5069723  79.9464703
  48.6897612   7.1748012  54.6784878  48.9304686   7.8996623  54.1015434
  49.4206333   7.1046066  55.2925920  69.6169043  43.2880068  28.2244062
  70.3562593  43.8499546  28.4563446  70.0183916  42.4581861  27.9666448
   4.0825149 104.8351383  71.2983990   4.4087446 103.9412022  71.4017105
   3.8136232 105.0952911  72.1794510  51.8242788   9.3928367  92.4518681
  52.7262831   9.2374814  92.7320194  51.2886858   8.9753425  93.1264591
  14.5331085  95.9546757  62.5043058  14.3717420  95.6615734  63.4011221
  15.4790258  95.8639812  62.3892260  16.7093349  87.4559784  77.5238943
  16.4748156  86.7959118  78.1762362  17.5663710  87.7765274  77.8049040
 108.3279037  45.8937597   0.7265894 107.6092529  45.5005980   1.2217517
 107.8958893  46.4013577   0.0396107  56.7200470  53.7451744   3.0348897
  56.5247822  53.1272697   2.3304059  56.6029596  54.6075583   2.6363742
  79.7322845  70.0429726  35.9124827  79.8633671  70.3261423  35.0075722
  80.6148243  69.8667145  36.2385201  45.7008362   3.8260800  77.3745489
  45.5047035   4.3520743  76.5992451  45.7292843   2.9253280  77.0519495
  87.1229172  65.2751684  13.6220086  86.9757175  64.6616268  12.9021943
  86.5558147  66.0198307  13.4217560  76.6404772  24.1602564   5.2919835
  77.1593952  23.3559251   5.2940702  76.7562866  24.5222855   6.1704791
   9.1567063  34.4965625  70.5908680   9.2357898  35.3585863  70.9993935
   9.4562799  34.6293449  69.6915054 113.2410431  44.4603586   1.1225750
 113.4764385  43.6169720   1.5092526 113.5401821  45.1081944   1.7605832
  86.1396122  46.4191723  17.2412086  86.1993408  46.9023943  16.4170969
  86.5918541  45.5935097  17.0680487  61.5106058  70.7885456  32.4802017
  60.7348633  70.2278757  32.4901223  62.1296215  70.3513241  33.0649137
  52.5369549   1.7153685  82.7187157  52.5485659   1.3357650  81.8400764
  53.4028339   1.5185407  83.0761242   5.0541961  36.4163566  71.9701385
   5.3095299  35.5929780  72.3861742   4.9819753  36.2023973  71.0399580
  48.6945963  21.2957025  89.6649837  48.5752296  20.4576874  89.2180920
  47.8938961  21.4103889  90.1768017  47.0901108  86.8812180   1.9992001
  47.9992485  86.5871239   1.9424792  47.1016121  87.7664948   1.6353734
 104.2516422  67.3538208   8.3594054 103.4745216  67.7532482   7.9685438
 103.9159489  66.5973663   8.8403636  82.4826145  51.0359478  11.7000818
  82.0902824  51.7615509  12.1856821  82.3169804  51.2455654  10.7809210
  83.9263821  57.8804207  39.8340583  83.3395672  57.3965311  40.4152060
  83.6478519  58.7923765  39.9176431  95.4641056  65.3110933  14.4861877
  94.7862148  64.7202349  14.8141932  96.2879467  64.8922348  14.7353446
  94.8754597  87.4470234  17.0270872  95.5706120  88.0926132  16.8998444
  94.4459629  87.7145195  17.8396249 104.4533348  48.7174129  22.1977711
 103.9365005  47.9123783  22.2299504 104.6634865  48.8302279  21.2707639
  48.4323120  79.7628880  13.2356071  48.9804173  80.4597950  12.8748667
  48.2031631  79.2226839  12.4793661  20.9291482   1.3100953  83.6437416
  21.8138576   1.6719367  83.5928154  20.5346727   1.5219335  82.7977180
  46.2151241  24.5947194   3.5597759  46.2997341  23.7861037   4.0649626
  46.1361217  25.2827740   4.2205122  88.4269810  69.0216255   1.1516648
  88.5064316  69.9698925   1.2551817  87.5571442  68.8940620   0.7730675
  68.9621115  61.8764782  38.9010382  69.8777914  61.6552353  39.0707922
  68.9919376  62.4466944  38.1327939  79.7960377  71.4868450  22.3830533
  79.9690676  70.7740831  21.7680240  80.6569767  71.7148256  22.7338243
  47.2293186  86.8145752  31.7784834  48.1245279  87.0406151  31.5260243
  47.1798611  87.0350552  32.7086306  61.7284775  59.3500614   2.7616850
  61.6543007  59.9805737   2.0453170  61.0805464  59.6398687   3.4038869
  80.2195549  67.8944445  17.9843771  80.5091286  67.0131540  18.2203925
  80.6021309  68.0489922  17.1206737 100.3431320  29.2678165  25.7995391
  99.8364830  29.7872043  26.4238620 100.9860897  28.8063812  26.3379717
  47.6529837  61.0477304  28.2366967  47.8026438  61.2294006  29.1645050
  47.1436071  61.7959118  27.9252601  19.6016705  43.9383268  81.0556984
  20.5167127  43.7714100  80.8297157  19.6396899  44.6393681  81.7063332
  83.3062649 103.1620216  90.9199429  82.5389099 103.6992836  91.1167908
  83.1152725 102.7756691  90.0652599  71.4962673  38.5584188   0.9855031
  71.3896704  37.6367617   0.7500967  72.0979834  38.9057469   0.3270727
  41.5570402   4.3445709  86.5846252  41.8390942   5.2063811  86.2780952
  40.8312702   4.5282272  87.1810818 100.0927925  43.5926342  27.0569444
 100.3923035  44.3913651  27.4911714 100.2849960  42.8936911  27.6820612
  17.5694919  82.2502995  60.6628084  18.0790138  81.5981865  61.1438179
  16.9237566  82.5642395  61.2958193   9.6219218  92.9744339  73.4387970
  10.1026034  93.7902451  73.2987213  10.2956212  92.3372078  73.6760902
  28.2138515  29.4517612  90.5071831  27.3846102  29.0136909  90.6987095
  28.4407973  29.9013853  91.3211632  94.0230560  96.8593407  84.8961735
  94.8485184  97.2478676  84.6065235  94.2835617  96.1772919  85.5151844
  59.3803692  63.3617640  14.3637121  58.4397125  63.2128525  14.4597292
  59.7203112  62.5343275  14.0230942  60.2848816  91.8771362   8.1833398
  60.8976364  92.5545216   7.8971428  60.4168844  91.8190765   9.1296148
  40.8987331  63.5761213  18.2668614  41.3729477  64.1822338  17.6976764
  41.2779093  63.7160301  19.1345489   2.5552660  53.4274817  19.2934775
   2.9016775  54.2853785  19.0480304   2.5680673  53.4289122  20.2505898
  76.6030359  28.7878633   0.4074510  75.9590769  28.8772273  -0.2950886
  76.3407040  27.9938531   0.8732416  56.6974926  71.1569023   5.3759944
  57.4887609  70.6212521   5.3193504  56.2876558  70.8924007   6.1995876
  54.9915218  63.5432243   9.2806250  54.8489857  62.7837753   9.8455572
  54.2260170  64.0985966   9.4282562 109.8643875   2.7786502  90.5870914
 109.7881603   2.2931549  89.7656822 110.0663376   3.6747238  90.3178310
  42.3334742  44.2087984  36.2583423  43.2222176  44.5084906  36.4495444
  41.7714405  44.7691011  36.7935133  50.9170198  71.7656946   7.7786559
  50.6312466  70.9051800   8.0853832  51.0171318  71.6615868   6.8324149
  54.6418190   7.6442736  91.0247326  54.4508123   8.2369173  91.7517281
  54.8769140   8.2229513  90.2994156  62.5485992  45.5246592  27.0431924
  62.0840740  45.8718777  27.8046966  63.1115866  46.2441444  26.7574978
  75.4448509  94.4869232   3.4109920  75.0675774  93.8974762   2.7579641
  74.6983624  94.9854279   3.7433600  63.2075644  35.7867408  28.1217170
  62.2793579  35.9358811  27.9416633  63.5322142  35.3318524  27.3445988
  32.4594617  16.5579319  75.6600142  33.2577157  16.5700710  76.1880970
  32.7098036  16.0992980  74.8580027  57.1646404   6.8887365  92.2078228
  56.7316818   6.0374188  92.1442890  56.4571047   7.5254279  92.1065807
  94.3167686  89.3890762  28.8332343  93.7020969  89.0226269  29.4689441
  94.6271324  90.1984406  29.2392373  95.7611847  60.9252119  13.3977604
  96.4922237  61.3962555  12.9978549  95.9857845  60.8789062  14.3270838
  21.3904595   7.1814692  75.2291489  20.5672741   7.6689976  75.1989317
  21.9901776   7.7535200  75.7080317  35.4287219  14.0147889  91.9273949
  35.4574895  13.9150262  90.9758377  34.5943236  14.4519973  92.0972633
  84.7710419 102.9148579  59.1176367  84.2994499 103.3152294  59.8480654
  85.5144596 103.4979534  58.9641380  33.8275027  20.6629777  85.7314873
  34.3045521  21.1485267  85.0585079  33.9881420  21.1517429  86.5386581
  47.2569752  56.5636635  23.4961915  48.2057285  56.5856218  23.3712149
  47.0369291  55.6321001  23.4965038  80.6273556  72.0027494   2.9671210
  81.4743137  71.7313528   2.6132274  80.1097393  72.2367477   2.1967009
 105.3591347  97.1341419  90.1078987 106.0124969  97.8026009  90.3140831
 105.4434299  96.9999599  89.1639042  83.1723595  28.8413405  16.5717363
  82.3151779  28.4614325  16.7644799  83.0158138  29.7853231  16.5467393
  76.0083485  38.4997487  11.2237179  76.0589838  39.3611407  11.6380513
  76.6901779  38.5165596  10.5521119  68.5068226  26.9529366  14.8162293
  69.0588570  27.7286506  14.9150121  68.7653923  26.5807438  13.9731121
  44.9991465  16.1432981  91.8590260  44.3233919  16.8194437  91.9081879
  44.6868658  15.5412447  91.1835670  73.4098625  47.8832006  30.3552079
  73.2988644  47.4982738  31.2245417  74.2291975  47.5095701  30.0306654
   0.5487009  93.4503365  79.2238998   0.1241963  94.3063164  79.2816114
   0.0303888  92.8867340  79.7982931  85.7149982  50.7913733  85.9263706
  85.7599449  50.7360411  86.8809128  85.1268768  50.0800562  85.6726551
  78.3878040  29.8954844  15.6864023  78.7320662  29.8815441  14.7933614
  77.5291157  30.3106546  15.6056213  62.5086212  48.8734245  19.2061722
  63.4462214  49.0529346  19.1360700  62.4601364  48.0085707  19.6134877
  17.8377664 106.6832352  62.6998663  17.2722661 105.9331322  62.8837013
  17.8701651 107.1667576  63.5253334  17.0817351  13.6155331  81.7325401
  17.0738578  12.6584363  81.7441177  16.1759627  13.8602340  81.5429974
  43.2843733  34.2562628  60.3415442  44.1813040  33.9314747  60.4206610
  42.9401207  33.8214064  59.5614004 111.8601131  16.9188905  75.8884048
 111.4192009  16.2359285  76.3937664 112.3750782  17.4009180  76.5354729
   3.1589332   1.5633793  69.3623066   2.8770053   0.8185548  68.8312864
   4.0208232   1.3095950  69.6924162  85.1860523  61.4123774   8.6923838
  84.9984360  61.4546108   9.6300673  85.7533836  62.1654844   8.5274756
  89.2729855  70.3423071  18.7630785  89.1486263  71.1241913  19.3010628
  90.1356220  70.0128365  19.0151656  89.4542694   2.8665948  89.6458054
  88.9133358   3.5898155  89.3286610  90.2681732   3.2828107  89.9296284
  17.7848268  39.3057847  83.8822937  17.6212168  38.4645486  84.3086624
  18.5689223  39.6447229  84.3142033  80.3050900  96.6570950   4.1817349
  79.8639870  96.5061951   3.3457386  79.9650526  95.9733009   4.7588161
 103.2926559  93.3508301  12.0353615 103.1653881  94.0324688  11.3755143
 103.2717133  92.5316620  11.5406263  76.8005848  62.4563169  34.1533709
  76.2966394  63.1518745  34.5758247  76.4637899  62.4265862  33.2578707
  71.9138670  74.6296549  20.3778338  72.2757959  75.5140257  20.4337454
  72.6609945  74.0795374  20.1424575  10.3208125 105.3334904  76.8762112
  11.1449909 104.8476124  76.8465662  10.5782235 106.2284660  77.0975685
  62.9409218  85.6584072  26.4282656  62.2881508  85.3871727  27.0736766
  62.5195026  86.3695717  25.9456897  76.9238901  42.8868437   6.9496256
  76.2077570  42.6123238   6.3768888  77.1864271  43.7429142   6.6113257
 102.1327209 102.2990513  69.6241045 101.3715076 102.2876072  69.0438747
 101.8221951 102.7343655  70.4180193 101.1703300 103.2033539  87.7548885
 101.2257290 102.4827576  87.1272755 100.5639935 103.8252544  87.3526096
  57.2067070  61.0186577  15.5761826  56.4336824  61.2837458  16.0745788
  56.9993353  61.2508917  14.6710324  74.0224266  42.6093054  17.3270667
  74.1354465  42.4984264  18.2710814  73.3201742  42.0009756  17.0968318
  81.4855385  76.8282366  23.6957479  82.0283890  76.0433912  23.7702584
  82.1121311  77.5514269  23.6713266  91.3476753  91.6199303  57.9155922
  91.0340118  92.3377323  58.4656954  90.6593513  91.5013409  57.2610903
  39.5021844  88.5454369  87.2888088  39.9318123  89.3821335  87.4665356
  40.0641394  88.1205273  86.6408253  67.5254536  65.5825853  13.4759092
  66.7779827  66.0054970  13.0532277  67.9107857  66.2676001  14.0222692
  90.8618832  39.2613554  26.6645980  90.3424358  40.0518417  26.8113589
  90.3032875  38.5472608  26.9716382  31.3748693  20.8764553  92.0960045
  31.4783597  20.8543444  93.0473328  30.9756947  21.7280936  91.9182301
  84.0169144  59.9708891  31.3846970  84.3245983  60.3292608  30.5521488
  83.0945683  59.7661829  31.2310839  93.8964272  29.0631104  69.4798183
  92.9743576  28.9232159  69.2643356  93.9026737  29.2019939  70.4268694
  68.8455820  83.0350018   9.1713876  69.2633772  82.4928951   9.8405671
  68.8093519  83.9091969   9.5595992  58.2412529   2.2081520  86.4627361
  58.1282568   1.9273366  85.5546570  58.9140177   1.6237777  86.8122005
  67.6821280  45.8947325  11.4326465  67.6543522  45.4658794  12.2879493
  68.0184364  46.7720699  11.6154253  34.2285800  94.3454933  28.2316256
  33.8791466  93.6291885  27.7015066  33.7862682  95.1268578  27.8998566
  66.5707254   9.7014248  77.7312279  67.2613382   9.5840555  78.3835459
  65.8042955   9.2748594  78.1144476  71.4862680 103.3822632  76.2995100
  71.9480658 104.0433884  76.8151522  71.1233377 103.8671207  75.5582762
  14.0948045  88.0024338  57.4373674  14.7795141  87.3708820  57.6577044
  13.4499979  87.4945545  56.9449091  85.1097870  61.1256552  29.1002107
  84.5120811  61.7590284  28.7029457  85.5030346  60.6685257  28.3568287
  92.2452831 102.0102215  90.5629539  92.2752666 101.1036491  90.2572632
  92.9386806 102.0642853  91.2206078  71.6201401  69.8637342  30.7884812
  71.8655777  70.5618906  30.1813817  70.8381414  70.1945305  31.2303829
  59.1903591  51.6237259  22.2027516  59.5431566  50.7972860  22.5325489
  58.6382008  51.9491386  22.9137087  84.7976780  57.2549152  29.7965574
  84.7849560  57.3790026  28.8475180  84.8733616  58.1401014  30.1528525
 111.7337704   9.6525413  66.2648726 111.4008236  10.0087440  65.4411650
 111.1670017  10.0320733  66.9364119  88.5291862  72.4568462   9.9934405
  88.2546902  72.8717566   9.1756767  89.3149376  72.9374599  10.2538884
  79.0762568  25.1178241  25.4094243  78.3054924  25.6645703  25.2570486
  79.7281027  25.7182384  25.7711291 102.3840618  58.5880852  17.2663772
 101.5862274  58.5786772  17.7951479 102.0956707  58.3232021  16.3929391
  23.2779312  29.2379951  91.3357544  23.1830335  30.1279068  91.6752911
  22.6303411  29.1793203  90.6333160  90.5236053  77.8008556  11.4834976
  90.0702763  78.1754208  12.2387612  91.3095379  77.3972845  11.8518353
   4.0194836  76.3077402  81.1349297   3.8931704  76.2021923  80.1919937
   4.1050899  77.2527552  81.2608147  92.0751286  43.7823200   6.5078926
  92.1326637  44.5835590   7.0284104  92.9346561  43.3721399   6.6038269
  24.0919375  43.5843515  92.6704216  23.6587262  43.3607578  91.8466663
  24.7696257  44.2129374  92.4217224  91.6766834  54.3473387  19.2712271
  92.1680164  53.5750437  18.9912415  91.6149330  54.2600584  20.2224374
  18.7063575   8.1280839  83.9276981  19.3911004   8.6286122  84.3713570
  19.0793848   7.9187393  83.0713940  85.9751415  87.0161247  77.0624590
  86.3630390  86.4137459  77.6972055  86.3806057  87.8614044  77.2556639
   1.0160041  92.0355797  86.7418671   1.4718804  92.8770924  86.7581463
   0.5739111  92.0190620  85.8930397  39.4922233  15.8748043  67.6384544
  39.3915057  15.6874192  68.5717154  39.9618697  16.7084134  67.6108646
  91.9072437  67.8674316   8.8038993  92.5404263  68.0402184   9.5006472
  91.1362362  68.3791971   9.0486068  80.8668900  60.9235573  36.7397594
  80.1380444  60.6487656  36.1834311  81.6293240  60.9067631  36.1612773
  18.3272791  27.2085690  91.8092060  18.4402764  26.3190436  91.4742374
  18.0908871  27.7261329  91.0394764 107.8026676  78.3360386  37.6946330
 108.4399128  77.7034569  37.3629713 107.1118927  78.3499289  37.0321608
  53.0862761  13.5323739  89.1194630  52.1490812  13.4017742  88.9750957
  53.1703949  13.6364889  90.0672531  57.6615906  90.1444721  15.1599526
  58.0259943  89.7553158  14.3649673  57.1564770  90.8957577  14.8490441
  91.0221195  35.3373861   7.3178476  91.3602352  35.9391618   6.6546935
  90.1045227  35.2078366   7.0781469  11.8142056   6.3918334   1.9982222
  10.9809911   6.7339683   2.3221496  12.0129240   5.6566650   2.5781098
  93.6364460  86.0934639  35.6651163  92.7023029  85.8848953  35.6551218
  93.9751244  85.6388283  36.4363647   6.3674331  46.5510559  71.1164951
   6.7663080  45.6904507  70.9880733   6.7677242  47.1032095  70.4448366
  63.3092213  68.0765247  36.4078283  63.2973719  67.9021978  37.3489451
  63.5136986  67.2302437  36.0100436  65.5622768  18.5349393  79.9729156
  65.1054716  18.3180737  79.1601896  65.3122187  17.8394103  80.5811501
 102.5694370  86.3394356   3.1706968 102.9256058  85.7847595   3.8647482
 102.7595615  85.8633614   2.3623383  60.8214235  54.6165943  26.6411424
  60.2949095  54.8432159  25.8745551  60.4345846  53.8033342  26.9654822
  68.9286184  83.8446617  12.5037658  69.7703075  84.0680408  12.1064079
  69.0533876  82.9601765  12.8477848  64.3004513  62.1974802  25.7914948
  64.3409348  61.6833639  26.5978932  64.4435453  63.1002808  26.0755873
 104.9289036  46.7800903  15.9201610 104.5687199  46.1882973  16.5806746
 104.1605186  47.1488953  15.4844975  23.9961386 103.1732655  86.9729424
  23.5196304 103.7972260  86.4253616  24.2170143 103.6673641  87.7624416
  32.2706127  38.5751939  25.0765324  32.9472542  38.2480502  24.4837713
  32.5921202  38.3562589  25.9511352  25.7477713  60.5506229  58.2480049
  24.9561214  60.7576799  57.7513647  25.8749485  61.3060904  58.8218737
 109.0430927  66.7616081  29.0631962 108.7128735  67.6310730  29.2895198
 109.9530792  66.7662573  29.3600774  86.0866261  53.8541889  27.4095798
  85.8258343  52.9703188  27.6684165  86.4459991  54.2413044  28.2078385
 111.6924572  85.8073997  51.1218882 110.8407879  86.0913181  51.4539671
 111.7475033  84.8827553  51.3632345  77.0719194  98.5037613  17.8780556
  76.8883514  97.7166462  18.3908784  77.6499128  99.0239143  18.4362626
  14.7603655  93.5680676  77.6664257  13.8237441  93.7595081  77.6182270
  14.8043430  92.6242256  77.8195906  56.5008545  79.2936468  10.4432833
  56.6435432  80.0239754  11.0453582  56.1141777  79.6962881   9.6657270
  35.6316328  29.0896034  88.5650444  35.9015989  29.5043087  87.7456760
  34.9579644  28.4613323  88.3049011  52.5794792  91.7051125   5.4264903
  52.6449823  91.3618088   6.3176060  53.4451294  92.0720387   5.2469426
  35.8992720  97.9036522  27.4654722  36.2740088  98.3747673  26.7212582
  36.3597703  97.0645428  27.4742246  71.5407801  25.3817987  89.4769573
  70.6038904  25.2515030  89.3303585  71.9650602  24.7971487  88.8489437
  15.4516196  96.3094902  56.5933752  15.8697903  96.8930817  55.9602976
  14.8756385  96.8806458  57.1015644  31.7465281  56.1225557   1.6181113
  32.5012040  56.0057831   1.0410003  31.3871789  55.2416754   1.7236927
  92.0750809   6.4847445   8.8961124  91.5689468   5.7692957   9.2810696
  92.3352528   7.0232618   9.6434700  95.6328297  41.4474964   6.6885811
  95.8594131  40.5300570   6.8409085  94.8152542  41.5753460   7.1696752
  79.0296268  33.4719467  33.8513708  79.8609781  33.8590813  34.1256237
  78.4620667  33.5557508  34.6175861  85.6574917  87.7724075  14.0822387
  85.1473331  87.0448112  14.4380033  85.7358456  87.5760937  13.1486690
 102.1595573  61.1124277  16.2163663 102.5232887  60.2669525  16.4792478
 102.3140907  61.6839361  16.9685137  85.8490276  74.1361427   9.7996962
  86.2365532  75.0109816   9.7727776  85.6797504  73.9208460   8.8825136
  83.5564613  87.7828407  10.5798852  83.7104225  86.8389988  10.5387652
  83.0835629  87.9837894   9.7722834  62.7849960  66.9394016  27.1432948
  62.5017357  66.2337303  26.5618992  62.0319319  67.0975018  27.7126241
  90.4698753  60.6293058  31.1954927  90.8035946  61.5252256  31.1486912
  91.2495327  60.0898886  31.3273835  90.8498192  59.8051548  37.6713443
  91.3288784  60.5328417  38.0678320  90.9775162  59.9191666  36.7295742
  12.5498927   7.5846642  11.8109977  12.6106346   6.6932261  12.1543336
  13.4595573   7.8647333  11.7094910  53.4837770 103.9833450  55.0725365
  52.6464319 103.6422443  55.3867483  53.4728909 103.8143635  54.1304350
 112.1259594  64.5047665  34.1016150 112.8217316  65.0393677  34.4841576
 111.5236282  64.3406391  34.8272061  81.5133381  91.5360165  34.8026013
  82.0422935  91.6641617  35.5900168  81.9729328  90.8533096  34.3138170
 108.3198643  80.5388165  63.3489227 107.6358891  79.9008179  63.5523129
 108.5272884  80.9441948  64.1908693  81.0139561  64.6427250   1.5435697
  80.5940533  65.2640676   2.1384175  80.3411007  64.4417715   0.8930972
  73.9012146  21.1291409  87.2633362  73.3758926  20.3595185  87.0443535
  74.6491051  21.0860753  86.6674900  86.9260502  92.0302391  21.3500285
  87.7642536  91.6646385  21.6328502  87.0947742  92.3619366  20.4681325
  46.6354036  82.9278278  16.8446171  47.0755100  83.2380676  16.0532296
  46.8821716  82.0052910  16.9098949  98.9305592  94.7025681   5.2066422
  99.3030357  94.6646023   6.0875785  98.1524563  94.1468811   5.2514458
   2.8305677  59.1759348   7.5525981   2.0900621  59.3493366   6.9713801
   2.6371697  59.6791172   8.3435702   6.6868842  65.9578514  12.6645708
   7.2567660  65.8529377  13.4264505   5.8007932  65.9590387  13.0266118
   7.8206533  76.2294483   9.0540987   7.3808640  76.1950541   9.9035889
   8.7149775  75.9404802   9.2355180  29.6801758  29.9455118  65.5422544
  28.8505626  30.0790596  65.0838423  30.0676870  30.8191395  65.5955839
  84.3614006  71.6014528  22.8444934  85.0835609  71.9609785  23.3597112
  84.0248585  72.3486376  22.3498392  99.7729397  46.1447334   3.0166334
  99.1513920  46.8339634   3.2508937 100.4713821  46.6013479   2.5476888
 100.0618362  25.2764153  22.5294280  99.7352314  25.9868264  23.0815816
  99.9396324  25.5931258  21.6344452  80.4212856  91.8469715  10.8686221
  80.4874516  90.9599495  11.2222433  80.9776020  91.8364143  10.0897527
  97.5323868  76.8221664  82.8138065  98.1823826  76.7354107  83.5110950
  98.0245304  76.6690588  82.0072174  68.5738707  57.5699615   6.7629123
  67.7633142  57.8551865   6.3411546  68.8437605  56.7978621   6.2656623
  47.5508356  18.9193738  88.6989594  46.9631720  18.3243728  89.1646385
  47.1713543  18.9942145  87.8233814  45.1467228  68.6880207  15.8906472
  44.5727062  68.4349918  16.6136348  44.8263693  69.5485830  15.6203806
  93.1864071  11.8302965  20.6268024  92.2700500  12.0701480  20.4889512
  93.1653976  10.8870602  20.7883453 103.3784485  42.3107338   7.0732611
 104.3047523  42.2252560   6.8476713 103.2642269  43.2409096   7.2680712
  33.5503340  24.2517114  92.6067734  33.3534193  24.8628283  93.3166981
  32.7683878  24.2657328  92.0548725  49.2197275  48.3355999   9.7210735
  48.6384439  48.1617165  10.4614151  49.9388313  47.7132750   9.8298460
  76.4143705  60.8427620   8.9834827  76.8401289  61.4991903   8.4320647
  77.0247126  60.1054525   8.9927858  77.4039793  79.5816565  14.1824830
  76.7678022  78.9071751  14.4203591  77.5863075  80.0390816  15.0033081
  45.0053692  35.2178693  83.0607319  44.5972109  35.8278918  83.6751461
  44.2872381  34.6571732  82.7672291  32.3205543  48.9778996  82.2302628
  33.0910516  49.4477367  81.9111633  32.5723886  48.6677027  83.1000805
  71.3433743  25.0312757  57.2045135  71.0897684  24.1554427  56.9132519
  70.7019329  25.6139660  56.7979908  29.8239207  34.2693853  86.6550541
  30.3907323  34.9590349  87.0005131  29.3580866  33.9357376  87.4218082
  76.0181093  75.4199076  15.3573942  75.2365923  74.9273252  15.6080306
  76.5419292  74.7975588  14.8528862  32.5845432  60.6674099  29.6606159
  31.7096233  61.0405254  29.7679853  33.1374240  61.1795998  30.2507162
  66.6218138  62.6893234  13.9201283  66.7370605  63.6315680  14.0430975
  66.0557318  62.6155186  13.1517947  23.3654928  41.8441963  87.7608585
  23.3350444  42.0647907  86.8299294  24.2735243  41.5839767  87.9157734
  70.9909964  66.8326807  44.4733858  70.6019974  66.1019993  43.9927483
  71.7131948  67.1270323  43.9183903  77.3922729  66.0277891  14.3100893
  77.6233006  66.2590075  15.2097535  76.6929150  65.3806210  14.4011760
 113.0212498   1.3755436  31.4454579 113.2363987   1.2883522  30.5168366
 113.5453033   0.7007969  31.8771100  72.3659563  33.2595372  76.4518785
  71.8713427  33.3384705  75.6361818  71.7189455  33.4138513  77.1402025
  70.4572582  55.8303022  42.2088718  70.3795719  54.8849154  42.0806551
  69.8385715  56.0282993  42.9119062 108.2300091  25.7105780   4.0658700
 108.9686584  25.4096675   3.5366490 107.4705505  25.6206250   3.4902230
   8.1389999  71.4346027  71.0737896   7.5571829  71.2000847  70.3507948
   7.8304935  70.9068346  71.8103456  78.2753754  29.8424315   1.9374199
  77.4845266  29.4829392   1.5354782  78.5524368  30.5377603   1.3407736
  78.6396170  48.2498741   7.8845996  78.2392359  47.5364161   8.3814949
  79.2651653  48.6436987   8.4927279  21.4283085   4.9043700  83.2532501
  22.3234415   4.6239746  83.0626011  21.4526963   5.1759923  84.1707802
  74.8223448  20.2009749   0.8139542  75.4184532  20.7194805   1.3543630
  73.9628792  20.5970430   0.9577496  88.8940525  43.3950567   3.0336508
  89.4367123  42.6434851   3.2721862  88.7676525  43.8696003   3.8552728
  35.1226377  12.9833984  89.3543339  35.5953407  13.4326780  88.6536694
  35.3271770  12.0572066  89.2256355  74.8807287  40.5730534   8.2616937
  74.1104269  40.8991241   8.7270379  75.6225348  40.9661579   8.7215078
 100.9113121  70.2082396  69.3718672 100.6215000  69.3723631  69.0064287
 101.4301586  70.6078291  68.6737633  53.4449339  29.3259525  -0.2929069
  54.0557194  29.6897817   0.3480323  52.6518250  29.1410971   0.2101247
 100.3592682  85.0407410  75.7335854 101.1574936  85.1813984  76.2427950
 100.1820278  84.1040707  75.8199263  81.3050365  55.0296688   1.8592431
  81.0889244  54.1178942   1.6637944  81.2819195  55.4688406   1.0090519
   5.0572616  93.4388924  85.9675217   4.2287713  93.9158154  86.0163689
   5.2516115  93.3916664  85.0314522  75.7870626  40.3708935  23.5790420
  75.4463148  41.1897182  23.9391184  76.6173649  40.2356148  24.0356994
  72.9666138  41.5690947  27.3994231  73.8204336  41.5163088  27.8288889
  72.5222445  40.7590103  27.6494813  63.0204582  56.9685793  16.0537291
  63.6011410  56.4262533  16.5875101  62.4632883  57.4192858  16.6882777
  21.7046452  59.5871258  69.8121786  22.2461462  58.8398314  69.5581007
  20.9918809  59.2036819  70.3232288  68.5149765  12.4568832  32.4689293
  69.4495249  12.4092400  32.6703882  68.2956934  13.3834207  32.5672841
 104.8552418  12.3769963  29.1050029 104.6921539  12.1784258  30.0270677
 105.8071995  12.4541247  29.0413547  55.8590078  17.1929574  18.4364164
  56.3039160  16.8402827  19.2070711  55.6289339  16.4214337  17.9186797
  86.2502956  30.0836635  38.9943123  87.0648575  29.8046303  38.5761547
  86.2685680  29.6672845  39.8560119  33.2901382  62.9351902  87.3640537
  32.3564911  62.8919077  87.1575165  33.3565402  63.6189461  88.0306149
   2.5148359  80.0252247  78.7356329   2.8357616  79.9237967  77.8395605
   3.2969636  79.9415398  79.2810726  64.4741106  49.7814274  15.6702459
  64.4658613  50.7353544  15.7489216  64.9738407  49.6112728  14.8717785
 111.9400978  74.9731398  90.3566456 111.0356903  74.7996998  90.6177807
 112.3639870  74.1151524  90.3769112  15.2817154  54.2497826  49.3917036
  15.8004069  53.9337921  50.1315260  14.6699870  54.8763275  49.7783089
  20.1256847  64.3964911  89.4214821  19.6353149  63.8902330  90.0691509
  20.0815940  65.2983809  89.7391033 109.6473598  99.9580765  91.9870281
 109.1988087  99.1179371  92.0829010 109.6765423 100.3166103  92.8740597
  85.1009369  28.8176107  26.1053061  84.8198128  29.0975881  26.9764066
  85.9111309  28.3318448  26.2597179   5.5056518  73.8178587  69.3838406
   5.6312698  74.4269896  68.6562300   5.7098508  72.9585791  69.0148211
  75.9823799  24.8081589  15.3718925  75.9207058  25.7604241  15.2969158
  75.0788689  24.5189261  15.4993474  27.1067166   2.9216224  36.5956283
  27.4005389   3.8104963  36.3961196  26.2551022   3.0396503  37.0164084
  50.7922506  26.7935967   8.0923575  50.1748896  26.5391374   7.4065399
  51.0684538  25.9655881   8.4852290  22.6311564  91.7066479  92.0084190
  23.4233713  91.4892006  91.5171623  22.2285342  90.8597946  92.2006798
  66.4682055  44.7645760  13.9140260  65.9317970  44.0883350  13.5002697
  65.8678293  45.2175331  14.5061517  27.9916430  70.9350681  35.7493138
  27.8514552  71.8569040  35.5329871  28.4997582  70.5912209  35.0145864
  31.9299674  13.3471107  82.6795387  32.0663929  13.4467232  83.6217117
  30.9786510  13.3217216  82.5766373  59.2587805  10.5218410  87.4915314
  59.1938400   9.8170245  88.1359291  60.1694107  10.4946983  87.1978474
  42.6676512  28.4170318   5.9302258  41.7794514  28.1140733   6.1187726
  42.9296637  27.9223776   5.1537603   2.9173562 101.9463253  76.2265158
   2.4505109 102.7819538  76.2227249   2.8897908 101.6607094  77.1396923
  85.7615185  57.2351456  17.5503147  86.4349174  56.6967583  17.9661262
  85.5799961  57.9260254  18.1874681   2.9351506  73.6869431  73.0342484
   3.0387050  73.8830614  72.1030951   3.8038230  73.8346577  73.4081745
  98.4678268  54.1038465   2.3583579  99.1472435  54.7622681   2.5036553
  97.6615715  54.5204496   2.6627061  78.0383778  77.1577740  79.8100424
  78.5594273  77.8054333  79.3354082  77.6965523  76.5792322  79.1283703
  16.6561878  86.4776421  64.4186926  17.0815027  86.1491585  65.2108049
  15.7232893  86.3213825  64.5653725  92.4192333  60.2050018  69.7363520
  92.2511005  60.0720882  68.8034534  92.3754597  61.1538363  69.8548079
 112.3798466  89.1246700  90.2415848 112.5643063  89.1745090  89.3036556
 111.4407444  89.2966938  90.3104687  38.9719772  49.6590757  29.3734360
  39.2177653  50.4918528  29.7763062  39.3095064  48.9939404  29.9733496
 102.7221489  82.1541500  67.2221184 103.2832718  81.8079090  66.5282249
 102.1036911  81.4469051  67.4052858  84.1359138  94.4624996  87.4205208
  83.3275127  94.9419212  87.2392368  83.8604927  93.7265301  87.9670811
  76.6369200  30.4406762  20.4136729  76.9520712  30.5526686  19.5168078
  77.4285507  30.4690814  20.9510207  66.9807100  72.8479004  14.2658842
  66.3467360  73.1814098  13.6310041  67.8243542  73.1801128  13.9590681
  98.9733791  85.8201694  91.2563229  98.3413887  85.1376724  91.0304451
  98.5399246  86.6380882  91.0126972   4.2759651  81.4827251  65.9299755
   3.5228425  81.6802883  66.4867544   4.3726766  80.5320930  65.9863424
  21.0673952  82.1945572  78.2290792  21.2658787  83.1302357  78.2657909
  20.2053046  82.1163750  78.6376333  25.0924873  74.7791719  83.5652447
  24.4826269  74.5805120  82.8547287  25.1303673  75.7353497  83.5880470
  35.6992388   5.5299962  46.7549896  34.8863101   5.1877052  46.3832235
  35.5211592   5.6044370  47.6925278 107.5736141  43.1616020   2.6185268
 108.3868027  43.6234617   2.4144424 107.8392696  42.4603939   3.2134801
  73.5302496  77.1909904  58.9089870  74.4500303  77.2149706  59.1729069
  73.2166433  78.0839634  59.0521097 108.5825157  72.5525665  87.1182537
 108.0939388  73.0854845  87.7455711 108.6430264  71.6913176  87.5315666
  38.1564164   0.9116340  83.5376930  38.0610681   0.6085030  82.6347828
  37.8245425   1.8093744  83.5252571  90.2457428  24.8535061   6.0386372
  89.5659733  24.1998124   6.2024540  90.8120823  24.4503951   5.3806174
  60.0426722  39.9603415  14.9211705  60.5968523  40.6517601  14.5591569
  59.3943262  40.4253149  15.4500175  37.4305654 106.6663551   0.6453598
  36.7414832 106.0649014   0.9275826  37.0805335 107.5370693   0.8339696
  91.7609501  17.5681460   3.7756953  91.5370941  17.8631568   2.8930354
  91.5097809  18.2972062   4.3428081  67.5429678  25.4769301   1.9062860
  66.8358660  24.8573351   2.0861275  67.8467321  25.7514191   2.7715111
  58.0510712  34.5477843  43.8710642  57.1588421  34.8877788  43.8035297
  58.3413029  34.4548750  42.9636717  85.3294373  38.0479026  13.8557589
  84.8564625  37.6485324  13.1256652  86.2313271  38.1235075  13.5441530
  46.4293957  60.3593397  21.5491962  46.9772816  60.2771473  22.3297715
  46.4101553  61.2990236  21.3679385  48.3247852   7.5910306  87.9444981
  48.8819599   7.9768002  88.6204910  48.8087130   7.7256244  87.1296787
  28.1466627   4.5106050  83.8412666  28.1828928   5.4614711  83.9450645
  28.5187197   4.1666749  84.6533775  73.6124516  65.6510735  12.6325405
  74.4947147  65.9442711  12.4047673  73.4187126  66.0939455  13.4587121
 101.3993359  70.3758478   3.2855704 101.8372059  71.0515261   2.7679169
 101.7986774  70.4422808   4.1529506  86.6158581  84.5750427   0.9226183
  86.6395283  84.8440742   1.8409294  85.7946968  84.9359131   0.5884068
   5.2322245  96.1251450  56.5045547   6.1150670  96.4933491  56.5399313
   4.7443780  96.7263126  55.9416676 109.4868565  77.5106764  65.5176210
 108.7699699  77.1273041  66.0229301 109.8084354  76.7912149  64.9743032
  77.5965691  74.6909094   6.1638361  78.2603359  74.5183229   5.4961121
  77.8763676  75.5093813   6.5737754  31.6525793  44.5622921  13.7686360
  31.1974645  43.9646292  13.1754267  31.5463781  44.1676474  14.6342027
  80.3330135  62.0028353   7.5038117  80.6253242  61.1088991   7.3258680
  80.6982899  62.5214338   6.7869675 105.5095577  49.5312548  37.6351571
 105.8117867  48.7809420  37.1233797 106.2950230  49.8498917  38.0798364
  83.9829540  20.0914931  42.5012398  84.2855453  19.9644017  41.6020632
  84.4904423  19.4638038  43.0157137  29.8824596   1.9551538  73.8401556
  30.2168655   2.8494877  73.9077663  29.0965009   1.9513856  74.3864965
  87.1356583  74.3841314  22.0238566  87.7681065  74.9250603  22.4967575
  86.4659405  74.1742849  22.6747608  78.7471294  88.7158680  81.6339207
  78.2452154  89.3688965  81.1462116  78.8139772  89.0764904  82.5180626
  19.0905976 106.7810154  69.1455984  18.3808625 106.2821102  69.5500708
  19.8701942 106.5353107  69.6436834  72.4154854  62.9304123   7.2675163
  73.1532335  62.8694773   7.8743511  72.2811365  62.0329666   6.9629288
 100.3088856  66.2082386  30.5086970  99.5749855  66.8226004  30.4952502
  99.8996925  65.3483820  30.6058550  64.7529268  45.1750040  32.6459432
  64.0166092  44.5692158  32.5617647  64.5489454  45.6932068  33.4244585
  30.5073881  13.9892399   2.1552324  30.2814937  14.3688011   3.0044305
  29.8455930  14.3333983   1.5553887  12.3303676  50.9771204  27.6161838
  13.0447328  50.9728146  26.9790840  12.7558208  51.1694384  28.4517884
   5.9992492  71.2065887  85.8179855   6.5682191  71.2874269  85.0524998
   6.0293472  70.2763653  86.0416126  61.1265564  61.5545845   9.8206580
  62.0204449  61.4578676   9.4922662  60.6328201  60.8641863   9.3781632
  26.8439984  10.7974029  77.1279860  27.4636245  10.0757170  77.0209217
  27.3554301  11.5829468  76.9341040  39.2691565  22.4341774  83.6048126
  39.8732448  21.8015337  83.2161331  39.8368287  23.0848384  84.0178776
  85.5403805  36.9401646  34.1117549  86.1508560  37.6174855  34.4029450
  85.9870338  36.5134573  33.3805585  93.9082813  92.4486637  79.1259718
  94.1960430  92.3411274  78.2194090  93.1607151  91.8570423  79.2117453
  49.0593481  11.1097193  83.6140919  48.3432674  11.0022414  82.9880714
  49.6160460  11.7856276  83.2274818  32.7412415  29.7232080  92.2498417
  32.2397256  29.3458652  91.5271187  32.1081567  29.8063993  92.9629421
  40.2129412 103.3483982  76.0613823  40.8088684 102.7743340  76.5425920
  39.8568010 103.9363956  76.7274570  16.7661357   1.9921279  89.5313835
  16.2771833   1.4267498  90.1292992  17.6602244   1.6512606  89.5567894
  12.4187374 104.0000057  67.5179338  13.1023109 103.3751106  67.2761393
  12.7166235 104.3714333  68.3483171  46.5349531  18.5565686  19.1656554
  45.7612467  18.1414354  18.7845016  47.0678473  18.8081837  18.4113717
  81.9258976  77.3645496  89.8107243  82.7185822  77.0145655  89.4040394
  81.2083340  76.9293928  89.3503189  10.5748069 102.3548317  79.1267776
  11.1110628 101.9365501  78.4532022  10.9478676 103.2314205  79.2197943
  58.5854673  51.4236116   0.3798066  57.8084850  51.9641972   0.2373555
  58.8906336  51.6683340   1.2534291  33.9481306  88.6889458  64.0905428
  33.7325549  87.7762318  64.2821407  33.3393526  89.1965675  64.6271515
  33.9062738  75.7369757   3.1658620  34.6257782  76.3541842   3.2985321
  33.8481688  75.6375217   2.2156179  24.9588871  93.4359074  67.1696329
  24.4573045  92.8813362  67.7672148  25.3918481  94.0716457  67.7393723
  54.0214348  24.9893808  86.1042404  54.1556501  25.1086736  85.1640320
  53.3644915  25.6453037  86.3375187  56.4510298  87.4795055  24.8423171
  56.2226009  87.9018688  24.0142703  56.3399839  88.1660557  25.5000091
  19.8916161   8.7738740  34.3508744  19.2457664   9.1669291  34.9379158
  19.5246363   7.9179317  34.1296935  57.6251078  47.9757643   9.5629543
  58.1562805  47.3101234   9.9999958  58.0228519  48.8072014   9.8213005
  57.3796988  57.4182987  21.1281681  58.0267334  56.7129087  21.1307335
  57.3810339  57.7412558  20.2270985  68.4846687  74.1817522  24.6924663
  67.9170322  73.4110594  24.6997762  69.2720890  73.9037085  25.1603222
  16.3653123 104.6755505  92.1794128  16.0581040 105.5795956  92.1119118
  17.3149204 104.7369194  92.0759296  31.9646835  98.5806847  87.6968575
  31.3129592  99.2402363  87.4591923  31.4728355  97.7603436  87.7336884
  90.1081848  75.3547764  10.1084232  90.4962158  74.6095324  10.5669808
  90.1732254  76.0791731  10.7307136  83.0339622  44.4405270  24.7425246
  82.4296474  43.7162924  24.9053693  83.8486671  44.0166140  24.4727373
  78.6392689  60.7440662  14.8652077  78.7866545  59.8029852  14.9594367
  78.7210417  60.9063864  13.9254224  28.0137420  14.3444872  73.3988428
  27.1403241  14.5038760  73.7565708  28.5729575  14.9855018  73.8377237
  30.0874662  16.4164627  91.7713451  29.3541026  17.0083117  91.6036415
  29.9796319  15.7138419  91.1303139  29.3181729   6.1731702  86.8267822
  29.9990749   5.6287932  86.4314842  28.8418365   6.5395331  86.0817242
  48.4972239  23.9330459  87.8354073  49.0784502  24.1899633  88.5512257
  48.1855536  23.0619240  88.0808449   4.8772743  85.7779121  57.2997379
   5.3096294  85.2900505  56.5988159   4.4061944  86.4784908  56.8486214
  39.2577553 105.3287411  77.7206612  38.6653924 105.8528137  77.1815157
  39.4920635 105.9047413  78.4483624  60.7168245  42.4432039   0.5077263
  61.0883474  43.1416416  -0.0311462  60.7575512  42.7829981   1.4016587
   7.5377011  88.1488323  82.0713902   7.8478605  89.0003014  81.7631149
   6.6350055  88.3082008  82.3470306 107.8563023  50.1978493  15.5289137
 107.8874779  49.9381590  14.6081412 108.0792236  51.1287069  15.5229187
  74.9804497  19.7762442  74.7674417  74.7441864  20.6025243  75.1889563
  74.6744728  19.8714197  73.8654709  79.0913916  17.1440661  81.7606449
  79.1897678  18.0553937  81.4848995  79.9851894  16.8020856  81.7807102
  22.3216176 103.7512016  72.7282715  22.1522593 104.4686890  73.3388090
  23.2016993 103.4487343  72.9523373 112.8559875  95.7058811  76.5645885
 112.0843601  95.8952332  76.0307646 112.5137424  95.6042862  77.4527216
  24.3455267  24.1845918  47.7725697  24.5479083  25.0873041  47.5268412
  23.4246922  24.2079234  48.0328655  40.1813507  83.4813404  40.4641342
  40.2373791  84.3667221  40.1046991  39.3835592  83.1171703  40.0805521
  90.2194691  75.9155512  35.0945377  91.0509491  75.9859037  35.5634975
  90.3064442  75.1189804  34.5709562  77.6879454  64.0335417  63.9275408
  77.8957939  63.2418489  64.4237804  76.9808483  64.4476128  64.4223070
   4.4881195  71.4500141  44.8069048   4.2419606  72.3489857  44.5889950
   4.8092553  71.5011501  45.7071781  30.0107646  68.5838032  67.4739647
  30.4438329  68.6927843  66.6273212  30.7248616  68.5937452  68.1113005
 105.8246613  95.7114887  22.8421664 105.4896259  96.5925312  23.0087638
 106.7661572  95.7792664  23.0009890  80.8288479  89.0615559  61.5182877
  80.4317284  88.1911469  61.5484715  81.7692184  88.8937759  61.4567471
  12.6735747  97.4895573  65.0868893  12.9927647  96.5920544  64.9928474
  12.9913175  97.7680016  65.9458065   0.3780939  79.7273207  86.2116528
   0.1744722  78.8184690  86.4324760   1.3279113  79.7910833  86.3117218
  48.1605387   5.0353080   8.7747890  47.7728701   5.3896964   9.5750111
  47.4163246   4.6940339   8.2788968  44.3971729   0.3417845  35.0874400
  43.6334467  -0.2045690  35.2730513  44.2588043   1.1321445  35.6093740
  47.3676395  10.5826414  35.6567407  46.9614553  10.5678082  36.5233588
  46.7045164  10.9739673  35.0880885 108.5577869  86.4911842  49.3419409
 108.9156818  86.3986111  50.2248716 107.6323605  86.6939735  49.4786692
 111.3964844 102.3725510  71.8673849 111.6593456 103.2416725  71.5644741
 112.0922184 102.1081257  72.4692774 103.1830597  78.7096786  79.1639185
 103.7432671  79.2252064  78.5837221 103.7899113  78.1475067  79.6455002
   9.2836505  80.1208973  64.2103624   8.6170042  80.6246948  64.6772718
   8.8114357  79.3654966  63.8602066   3.3181989  90.0451660  51.2661123
   4.1415465  90.3865147  50.9170914   3.3221868  89.1185474  51.0261345
 102.9499340  55.7453299  54.2411423 103.8948727  55.8922482  54.2827749
 102.5745010  56.6221952  54.1612434  90.5287075  58.7573433  28.1801414
  91.3571930  58.7879181  28.6585879  90.7814217  58.5754490  27.2749972
  88.8177681  72.4185038  24.6533060  89.6624470  71.9988203  24.8164272
  88.6306095  72.2306204  23.7335753   2.5236705  81.3011932  39.3435311
   3.1353450  81.2003040  40.0728512   2.4464242  80.4222584  38.9723897
   6.1535782  68.9813042  15.2499330   6.8817461  68.6506081  15.7759023
   6.2732017  69.9309921  15.2455413  22.4871254  96.7836285  44.4341516
  23.2883191  97.2729397  44.6209478  21.7954016  97.2812653  44.8701620
 103.4309578  97.5371838  37.9025030 103.1162262  97.1593952  37.0812488
 104.3319416  97.8005695  37.7152157  25.1081967  56.5300035  65.4004622
  25.7168198  56.3803339  66.1239338  24.5944881  55.7239723  65.3489876
  99.7812748 104.5985985  15.3819692  99.7665405 105.5526829  15.3063071
  99.5547485 104.4272995  16.2960672  54.9615335   8.1497270  87.3313141
  55.6672859   8.6678725  86.9444466  54.2020559   8.7321872  87.3185253
  95.6546402  74.3611717  60.5599308  95.9752846  74.8427439  61.3224936
  96.4218330  73.8908100  60.2337360  41.2958097  46.3342667  64.8742151
  41.7336607  45.5038404  64.6873617  40.4547215  46.2686253  64.4220018
 105.9845924  73.3139801  14.7639346 105.9764481  73.5957003  13.8491678
 106.3166332  72.4166727  14.7352564 101.8985462  81.8163204  56.0626316
 101.1894894  82.0700836  55.4718018 101.4744282  81.7105579  56.9142056
  51.0625076 102.8027821  55.3977251  51.2025499 101.8820000  55.1768875
  50.2696991 102.8025532  55.9340906  15.2610576  86.0938072  53.0954313
  15.7978129  86.0098171  52.3073530  15.2405894  87.0343304  53.2721710
 101.8806553  56.1588049  82.6928902 102.1535873  57.0322561  82.4121284
 102.6934147  55.6546116  82.7309895  18.4094620  73.0600834  65.2351379
  17.5654483  72.6341438  65.0853062  18.3633471  73.8689947  64.7254658
  21.9902468  75.2700996  54.1829252  22.5961471  75.8122873  54.6880484
  21.7407203  75.8188248  53.4393740  54.2333412  91.6874409  60.1560450
  54.1360664  92.1914482  59.3481255  53.3718824  91.7314434  60.5709887
  12.6364291  99.0936184  33.6558867  12.2325468  98.2717896  33.9346504
  12.3550904  99.7328663  34.3104386  63.9396858   3.0645871  37.4339437
  63.0453300   3.2084450  37.7432513  64.1241837   3.8195008  36.8751073
  96.5049648  84.8780632  50.5130672  96.1926556  84.1713810  51.0781193
  95.9579563  85.6288528  50.7439756 112.3626518  87.8291702  52.8046989
 113.2758045  88.1078720  52.8732824 112.3156929  87.3662376  51.9682074
  68.0497646  73.9319801  53.9585733  68.3130884  74.5663738  53.2919073
  67.8694248  74.4616175  54.7352266 107.4163246 100.8126736  49.3832445
 107.3953915 100.7888508  48.4265661 106.5375042 100.5418491  49.6488619
  18.8245630  77.3733997  23.9706588  19.4397616  77.0450640  24.6263695
  18.0302680  77.5729275  24.4661546   8.5302711  82.5369835  44.8397684
   7.8795063  82.5946140  44.1401863   8.2779956  83.2222843  45.4585981
  23.1545258   9.2822611  70.6510305  22.5219584   9.9357861  70.9493494
  23.8477063   9.7931910  70.2330732  20.7056856  84.6127319  45.5807066
  20.0304794  84.0178204  45.9069157  20.4547596  85.4706573  45.9231091
  49.6476269   3.8434762  45.5441141  50.0537729   3.7958652  44.6786594
  49.3694401   2.9462063  45.7278252  41.3587141   6.9679910  33.9986300
  41.4221907   7.6924562  34.6210074  41.6938686   7.3277181  33.1773496
  14.1209030 105.3718185  62.1714258  14.3004060 105.3576469  63.1115341
  14.7232962 104.7257042  61.8027973 101.8700504  85.0333595  44.7676039
 101.0212708  84.5960617  44.8352528 102.4330425  84.3967342  44.3271732
  51.3018942   9.3332076  13.2426715  50.8909464  10.0102305  12.7050900
  50.5828762   8.9670086  13.7575936   1.8869729 104.1353798  78.0988359
   1.5106472 104.9839306  78.3324194   1.6978781 103.5743046  78.8509512
  60.9350157  15.5514681  65.7337761  61.6784954  15.7900393  66.2874508
  60.7414389  16.3464856  65.2370787  56.1646509  30.5387878  79.2070913
  55.3364325  30.3411245  79.6443701  55.9172726  30.7372403  78.3039570
   6.7426348 105.0139332  68.7361622   7.4245262 105.6415939  68.4967756
   7.0784992 104.5836830  69.5224905  39.4960952 100.5274200  62.2445726
  39.9517226  99.7383499  62.5378227  40.1931190 101.1044312  61.9324160
 111.2477589  96.1146927  28.9592099 111.5554047  96.9021797  29.4080424
 111.6095257  96.1857033  28.0758548  46.0240889  79.7959280  54.7140741
  46.1815977  79.6436977  55.6458712  45.7737637  78.9383984  54.3702507
 107.8980541  70.9555149  41.9742203 108.5369682  71.2632704  41.3313341
 108.4138584  70.4470158  42.6000118 100.7414436  86.5210819  39.8006272
 101.4498806  85.8782005  39.8330665 100.0109005  86.0522938  39.3971634
 110.0899220  98.9307499  27.8714919 110.6831932  98.1812382  27.8216529
 109.8159409  98.9588070  28.7882137  94.0532494  52.8875542  78.2355690
  94.0327740  51.9322252  78.2917643  93.4389114  53.1802988  78.9087152
 104.6408272  77.1934175  49.4166851 105.2855682  77.8728819  49.6138287
 104.8674202  76.8967342  48.5352802 113.0710602 103.8248348  41.2247086
 113.1217289 103.2089996  40.4936743 113.0147457 104.6854305  40.8094454
  32.6648426  85.1292706  37.2218966  32.4448705  84.8011875  36.3499999
  33.4729743  85.6260586  37.0940208 111.4281178  82.9778671  51.5171814
 110.5799961  82.5726986  51.6981840 111.9160080  82.8881168  52.3358011
   1.9961704  64.1471004  54.9459743   1.9434890  63.2114077  54.7512102
   2.9258159  64.3578815  54.8590040  24.8664141  74.3253994  79.2212248
  24.3311954  74.2295885  80.0090027  24.2546558  74.1883278  78.4979010
 108.7479782  59.1221619  30.2896476 109.6342087  58.9344835  29.9804449
 108.8395119  59.2134237  31.2380791  20.6652308  77.3714161  78.7341833
  20.6626892  76.7072916  79.4235039  21.5907001  77.4930000  78.5221481
  97.2724819  94.7968578  71.2755251  97.0028687  95.2482700  70.4756737
  96.4911270  94.3209171  71.5569258 112.9168987  64.5185423  83.8268566
 112.9214478  63.5918999  83.5869694 113.6202717  64.9045372  83.3048439
   7.4078763  87.8690720  74.4848490   6.9064415  87.2795105  75.0480700
   7.2565025  88.7392139  74.8538589  15.3401184  80.3617191  35.8206797
  14.9231768  80.5015182  34.9704742  14.6313834  80.4675198  36.4552927
   7.2910619  59.4379854  28.4568334   7.7814037  59.8444557  29.1713810
   7.9111904  59.4064856  27.7283549  66.0014629  54.9124861   1.1079106
  65.7238340  55.7324123   1.5164125  65.6459093  54.9547577   0.2202010
 112.8562546  55.0720835  84.6052837 113.4363651  54.3178415  84.5012760
 112.1856880  54.9530411  83.9326763  22.4232602  67.6013851  53.2904100
  23.2927632  67.6828146  53.6822796  22.5931311  67.3923445  52.3718882
   8.9596665  90.5318451  19.4372118   8.8853139  90.1340866  18.5697520
   9.3578118  89.8509979  19.9795723 112.2582531  68.0153561  35.8275318
 112.0976067  67.5919056  36.6708064 112.9709816  67.5093794  35.4373622
  99.7846508  83.5923004  78.9398050 100.3717232  83.1335258  78.3388901
 100.2977753  83.6996365  79.7406864  87.4272633   5.6643659  53.5259628
  88.0881882   5.0583518  53.8608599  87.3353958   6.3229644  54.2144680
  70.1484299  12.1208942  79.3025446  69.4556189  12.4198377  78.7135887
  69.9979496  12.6049292  80.1145172   6.6780764  97.3764515  68.8702965
   7.1841741  96.6093636  69.1380119   6.6803020  97.3429298  67.9136848
 111.5970516 103.3426189  80.2746105 112.2215176 102.6277733  80.1510239
 110.8798599 103.1407070  79.6737003  27.6671410  81.5426826  28.9255452
  28.5547829  81.8513966  28.7438345  27.7741718  80.6143665  29.1329122
  20.1474071  78.0403423  62.1765137  20.4097509  77.2956181  62.7176189
  20.8563304  78.1357813  61.5404701 103.9899540 103.3184814  85.3365517
 104.2195797 104.2477322  85.3375053 103.0867100 103.2952881  85.0205898
  23.7689281  80.5674458  61.0169172  23.1103969  80.0256157  60.5821848
  23.3308101  81.4058685  61.1629772  15.9094834  92.8838253  52.0001888
  16.4957285  92.1272278  51.9897366  15.4223156  92.7980423  52.8196669
  63.9589930   3.8028494  51.3022566  63.0640221   4.1237393  51.4131355
  64.2204475   3.5153386  52.1770191  22.1567345  98.4436321  63.7836790
  21.2470722  98.7365532  63.7293863  22.4052095  98.2645035  62.8768110
   1.7040655  98.8727665  55.3809834   0.8205040  99.0611267  55.0646448
   1.5689988  98.3552647  56.1748219  35.4624510 100.0236130  56.2739420
  34.5898032  99.9053383  56.6490793  36.0614967  99.8231411  56.9930983
  27.7609253  80.1870441  68.5915804  27.7615976  80.3964424  67.6575613
  26.8657017  79.9003124  68.7721109  36.2571144  13.7960887  43.7796545
  36.4969683  14.3946648  43.0722570  36.0457730  14.3689406  44.5168161
  18.3463526  90.1217461  49.5333099  19.2695665  89.8985386  49.6519899
  18.3402574  91.0744381  49.4407749 113.0191135  86.8250465  20.7242227
 112.7448273  87.0454025  21.6144156 113.9756107  86.8396950  20.7577682
  47.6541567   5.3677791  74.7774220  47.6461792   5.0284952  73.8824081
  46.9795275   6.0468125  74.7821808  20.4879093 100.5891895  84.1331005
  19.8031974  99.9211121  84.1004372  20.4411650 101.0219288  83.2805824
  24.5501208  97.8606319  90.8103943  25.1413035  97.6253796  90.0952816
  24.1589475  98.6896706  90.5348873 108.4554482  96.0091686  23.6812997
 109.0250206  96.2053299  22.9374337 108.2689857  96.8629265  24.0718722
 106.3092899  97.7619934  32.0883536 107.1807575  97.4230766  31.8836284
 106.2776566  98.6167145  31.6586137  24.0476871  99.3482590  48.4578848
  23.8881087 100.0884342  47.8722954  24.4864845  99.7332764  49.2164660
 102.0244980  96.2634754  50.4612875 102.6831436  96.2380695  51.1553860
 102.4326801  95.8049297  49.7268772  28.4011841  55.9966278  76.6197014
  28.6859918  55.5453444  75.8250570  29.2006350  56.3866568  76.9732380
 109.5743656  94.8319340  25.8078337 109.3697643  95.4569340  25.1123095
 109.1550827  95.1956844  26.5876579  41.6934967  30.3394985  49.6490240
  41.8016672  31.1062288  49.0863037  41.1446333  29.7436953  49.1391277
  75.0272179  98.4383869  62.7569818  74.3665504  97.9050064  63.1988573
  75.6242275  97.8023338  62.3629761   4.9928877 107.3096848  73.0112982
   4.2393613 106.7856503  72.7395964   4.8442537 107.4785137  73.9416933
   3.5485283  85.4767513  42.0429802   4.0842682  84.8755932  41.5254688
   3.5445210  86.2896347  41.5375662  25.4407215 102.2443581  57.1269464
  24.7183990 102.3094749  56.5022516  25.2419496 102.9030323  57.7924347
  36.7386651  22.9396558  71.7288017  36.5521383  23.8472915  71.9688749
  37.1806216  23.0018687  70.8820200  32.3758197  10.5609560  35.4219794
  32.4834347  11.0095739  36.2606668  33.2694268  10.4217637  35.1084161
  11.3559997  76.4391088  73.4309530  11.6352546  75.9706259  72.6443338
  10.8978426  77.2115231  73.0997324 101.8440056  94.8100471  60.7198238
 100.9430408  94.4878578  60.6934214 101.8113995  95.5646324  61.3078451
 111.4962578  88.0696583  18.0035925 111.1653996  87.5235939  18.7167370
 110.7399273  88.2010365  17.4318111  26.6033363  89.5199394  48.4592628
  26.5803313  88.8892555  47.7395868  27.5140619  89.8127365  48.4921169
 104.5492744  80.1826954  53.3187675 104.8315430  80.7997036  52.6435947
 104.6670151  80.6575489  54.1414976  35.5245090  10.1955247  60.6505871
  34.6355247  10.4442215  60.9037495  36.0582066  10.9596956  60.8683968
  29.4746041  91.7576790  37.7602100  30.1583219  92.2709656  38.1906629
  29.2278385  91.0969925  38.4073901  52.7245378  53.9498281  27.2234392
  52.8220606  54.8236656  26.8451118  51.9363165  53.5967779  26.8107748
  44.5877457   5.9386021  75.9162903  43.7603712   5.5142301  75.6891537
  44.8089647   6.4603996  75.1449156 102.9463482   2.1772406  24.0457559
 102.2576237   2.5204763  24.6150351 103.1030273   1.2895614  24.3677950
  91.0407352  96.8629932  48.6822510  90.3273678  96.6555882  49.2858410
  90.6987190  97.5762939  48.1433153 111.2538719  85.6257725  86.4705658
 111.4307785  85.4336452  85.5496788 110.7604122  86.4457989  86.4536476
  97.9996777  57.7932024  30.5557728  97.4300480  57.0260763  30.4986000
  98.7272549  57.5957537  29.9659610 109.8681831  88.7952042  46.2474775
 109.3953323  89.5768261  45.9616327 110.3294468  88.4945774  45.4644728
   3.9723697  91.8064499  21.4453816   4.4620883  91.3878536  22.1533275
   3.0628645  91.5510654  21.5996838  37.7720594  57.6035213  27.8285861
  37.0134330  58.1817627  27.7488732  37.8056097  57.1360111  26.9939971
  33.9596248   3.5995641  58.3574200  33.8126349   2.6634213  58.2222795
  33.0812430   3.9793411  58.3784962   9.8141032  98.7283134  42.0459461
   9.1989875  98.0546856  41.7559671   9.4001770  99.5543194  41.7957401
  30.6820560  11.6595256  56.4714146  30.8985281  11.3005888  55.6108713
  31.3793659  12.2904539  56.6500759 110.7310009  76.1041451  55.8520222
 110.8214188  75.4893255  56.5800667 109.8640633  76.4917374  55.9721041
  45.1207972  99.3811417  52.4391556  45.6015158 100.0550938  52.9197121
  45.5337191  98.5587025  52.7024460  58.3454752 103.4405422   0.0310280
  58.7162399 104.3043804  -0.1493923  57.8332376 103.5619640   0.8304637
 108.4211636  72.3927927  70.2038860 108.4650040  72.3389006  71.1585617
 107.5716305  72.0120525  69.9812603  -0.0805903  70.5559731  42.6215935
   0.4955053  70.5269384  41.8577194   0.3664064  70.0229454  43.2790947
  16.1412501  90.0372505  72.7962494  16.2223053  89.4710922  72.0287037
  16.6707575  89.6074295  73.4679031  13.1049597  97.4964428  77.4982405
  12.6948798  97.7259159  76.6643286  13.9693856  97.9058266  77.4607325
  45.8708000  17.7856886  86.6153240  45.0333452  18.2166457  86.7861366
  45.6642914  16.8510365  86.6187954  25.8463883 107.1732044  52.8933859
  25.4412556 106.4812851  53.4162140  25.1093149 107.6289368  52.4868679
  31.5594745  85.2399921  47.4407339  32.2533202  84.9508286  46.8481159
  32.0242834  85.6052494  48.1935740  27.4360752  32.0347714  41.8817186
  27.2092676  32.9574227  41.7655134  27.9173732  32.0087647  42.7087069
   4.9959451  93.3471775  74.3957758   4.5406374  94.0668201  74.8328447
   5.9107536  93.6270142  74.3634462  39.5042133  47.2733688  56.0883617
  38.7216425  46.7225170  56.0689926  39.1663671  48.1684256  56.1194229
  47.4786711  33.0680394  70.5272532  48.1423426  32.8471971  71.1807108
  47.0346165  32.2393775  70.3473473  92.0015907   2.8931734  74.6870089
  91.3034916   2.2403535  74.6349144  91.6770554   3.6324376  74.1728163
   7.7533334  10.5652463  45.2385664   7.8056633  10.7023823  46.1844444
   7.4071950   9.6778476  45.1439953   8.7701327 106.9145775  51.3424444
   7.9270697 106.4627171  51.3062906   9.2925084 106.5023613  50.6543779
  12.1739638 103.2905293  50.3867531  11.9078016 102.7807903  49.6215343
  11.6861236 104.1104889  50.3098392  23.6982155 101.3733864  69.3268681
  24.2136145 101.0764980  68.5768986  23.4417391 102.2678089  69.1022348
 108.1142139  80.9209061   6.7252070 107.7422428  81.7914772   6.8665779
 109.0553856  81.0734367   6.6406429   7.9570347  98.6432648   2.3428811
   8.8851672  98.7694168   2.1456863   7.9476780  97.9936886   3.0458730
  79.4318438  84.4341278  49.1239643  79.1349363  83.7225437  49.6911669
  80.3481483  84.2273331  48.9399767  38.6084938  99.7719193  25.8707118
  38.8947678 100.6344032  25.5700588  37.7434134  99.6562290  25.4776669
  23.9200115  32.7013874  69.3903542  24.1478038  33.3675814  70.0388384
  24.5936322  32.7839875  68.7153435  89.9560452  27.0974803   7.4472034
  90.0831985  26.3075113   6.9218343  89.0276146  27.3065281   7.3445433
  46.7910528  59.4839478  63.3998251  46.4282513  58.8516617  62.7794886
  47.1982718  58.9464092  64.0791321  67.4792051  36.9700480  67.3647070
  67.6795530  37.6585150  66.7305851  66.5919495  36.6891146  67.1409130
   5.2417523  31.7462993  47.7211380   5.7426047  31.7381644  48.5368061
   5.9061563  31.7613888  47.0322466  33.3338475  86.2378407  72.7429628
  33.9091158  86.8879604  72.3396778  32.5347614  86.2658501  72.2167444
  15.2053034  65.1992416  74.0313387  14.7958612  64.8295879  73.2490730
  14.4866371  65.2919197  74.6567678  20.9234881 103.3351803  29.7449660
  20.5579615 102.5778294  29.2877460  20.5042815 104.0898514  29.3314815
   4.2206797  42.3512650  37.7958131   4.4011813  42.2609663  38.7314939
   3.7115014  41.5717268  37.5737882  99.4520378  45.7297373  61.1429405
  99.9887753  45.7619238  60.3510427 100.0837994  45.7540274  61.8616343
 109.0294552  74.6468878  68.7070942 108.6112690  73.8940907  69.1250086
 108.5789108  74.7354603  67.8672171 111.1671734  52.5579834  17.6561248
 111.0977173  53.2738400  17.0244956 112.0027924  52.7087021  18.0980110
  92.2180271  55.1903963  32.0596480  91.7924786  55.9827280  32.3872900
  91.8815136  54.4894505  32.6179194  13.7318206  86.7451382  65.2288532
  13.4604383  87.5855064  64.8595762  13.1635642  86.6230202  65.9893799
  14.9846232  69.5703745  36.7045045  14.6009088  70.4441643  36.6304374
  14.2389417  68.9744854  36.6330409  11.7043483  43.4793615  30.8398795
  12.5036585  43.7040758  30.3636050  11.9688344  42.7766371  31.4335585
   2.8840336  99.7716045  60.9248781   3.0242342  98.9499664  61.3955069
   1.9438505  99.7877026  60.7459164 101.7009354  83.3219814   6.1168170
 101.2682724  83.6618233   5.3335321 101.5983772  84.0164852   6.7674899
  91.4276600  53.3892679  53.8908577  92.1173286  52.7976036  54.1917181
  91.2540627  53.9564180  54.6421432  21.6367269  64.5312452  32.2486496
  20.8640766  64.0469599  31.9576001  21.3192105  65.4219484  32.3971915
   7.9319987  72.4754091  -0.0857535   7.7838931  72.8148933   0.7968912
   7.4764761  71.6336366  -0.0981608  66.5688610  75.6533146  16.1388814
  66.6721392  75.5435944  17.0841467  65.6380653  75.4965973  15.9798515
 104.9461365  62.6956797  53.5462761 105.1899052  62.5984049  52.6257610
 105.6006908  63.2947111  53.9053679 106.5952778  31.4325142  31.3932300
 107.5375080  31.2957907  31.2945199 106.1985397  30.6468415  31.0169983
  99.6449566  84.7143936  30.6854939  99.8360252  85.3101254  31.4099479
  99.3114853  85.2817726  29.9904275   2.3563516  45.0127029  27.9991436
   1.5787227  44.5165014  27.7435803   3.0755767  44.3853474  27.9258227
 105.0760174  72.2433138  57.0731449 104.2567635  72.7380037  57.0550871
 105.7479477  72.8994083  57.2582865 103.8552666  48.5281467  41.4329576
 104.5485687  49.1782475  41.5467119 104.2746830  47.8115559  40.9566975
 112.0057487  56.0198736  27.5986409 112.6655960  55.7018042  26.9824648
 111.3275051  56.4065123  27.0448184  15.9963095  88.1899166  49.1910028
  16.8901134  88.5178375  49.0919399  15.4420388  88.9548779  49.0365648
  12.7669549  94.1002178  24.1928434  11.9384909  93.6274910  24.1127682
  13.3720827  93.4609795  24.5689178 100.4779148  82.0659733  64.0806580
  99.6572876  81.6823101  63.7714291 100.9616756  81.3286972  64.4529867
 109.9844360  33.5329413  33.2652354 109.9927902  33.2087469  34.1658258
 110.5887127  34.2752576  33.2722783  86.6197300   9.4783300   6.3518488
  86.3769531  10.3530002   6.6555631  86.4533615   9.4972861   5.4094088
  37.0509148  86.8040371  63.2415628  36.6544175  86.3413525  62.5033569
  36.9444013  87.7310753  63.0282927 101.9044304  60.1593590  28.5941386
 101.4751625  60.6103277  27.8671002 102.7330303  60.6246519  28.7088490
   2.8322953  37.8633666  38.9217567   2.6133105  37.5157619  39.7863078
   3.3049977  37.1516705  38.4901643   1.4349701  66.5392828   6.5064150
   2.0661069  66.8712759   7.1449113   0.9143719  65.9008694   6.9939005
   3.2434183  56.2346697  67.6824713   3.1308031  56.0458851  68.6140871
   3.0410847  55.4079962  67.2444057 107.9616833  72.8243208  10.4240799
 108.7797260  72.8304434   9.9270946 108.0045319  72.0231009  10.9460402
  39.2392445  32.9021335  16.2757945  39.4129276  33.4776831  15.5309391
  38.9213729  33.4883785  16.9624567 106.9962788  60.2254248  33.8015389
 107.7806091  59.9009275  33.3590961 107.2592926  60.3193331  34.7170901
  34.6516609  73.3537579  61.4382601  33.7894368  73.4096909  61.0263443
  34.8854685  72.4274063  61.3796377  44.8485994  61.7170048  55.4099417
  45.4334259  62.4452686  55.2005625  44.4688320  61.4651585  54.5681715
  97.2714329  56.6467571  33.7991476  97.3794079  56.5274429  32.8555703
  98.0876923  56.3192940  34.1769338  92.1392632  88.6683083  54.2504597
  92.1250916  88.8012123  55.1982832  93.0665684  88.7094212  54.0166807
 113.1427383  58.3204842  28.8621306 113.4555912  58.2150650  29.7605991
 112.8601742  57.4435806  28.6024666  99.1627407  59.6299124  21.4031959
  98.2756901  59.9706221  21.2878966  99.6633720  60.3738165  21.7381668
   1.7305827  79.3136930  42.1720123   0.9798890  79.9041414  42.2357416
   2.1551976  79.3728924  43.0278301  11.6582429  24.3752217  56.0800409
  12.4573493  24.2298961  55.5735445  11.7400682  23.7868381  56.8306017
  22.3622775  43.9864922  75.9895992  21.6266751  43.4594393  76.3015938
  22.6460147  44.4807243  76.7586613 100.0539875  56.6466379  65.2476025
 100.9786510  56.8341160  65.0860548  99.7151279  57.4446440  65.6532907
  79.9401617  16.7251587  92.4053478  80.2347946  17.0694375  91.5621948
  79.0044165  16.9249284  92.4318409 109.0752411 102.9451180  36.8366265
 108.8395214 103.7808990  36.4339590 110.0101852 103.0254841  37.0254755
  10.4630208  99.5255852  19.5750344  10.9410989  99.0615368  18.8877678
  10.5158770  98.9472103  20.3359032  84.8905754  78.1813717  47.8751850
  84.7117805  78.9602089  47.3482370  85.7121563  77.8380013  47.5239944
  12.1141243  73.9973879  34.2561293  11.3963187  73.7744665  33.6634278
  11.8219435  74.7953844  34.6966553  32.8046560  82.3444080  63.6944532
  33.2815242  82.8377151  64.3618965  33.3931923  82.3319721  62.9396677
  92.2186375  66.6542959   2.5249746  92.0052719  67.5559902   2.7650800
  93.0342674  66.7251015   2.0290126  10.5645263  63.2481289   7.4163204
  10.2783346  62.4266243   7.8156435   9.7725880  63.7843990   7.3778611
  37.3119450 102.2335625  85.4148293  37.5483704 101.6624069  84.6840096
  37.9000974 101.9719505  86.1232567  21.0457754  85.1581001   9.2645562
  20.1558113  85.5100727   9.2468411  21.0171294  84.4676399   9.9268860
 110.4169083  77.8484154  18.6204958 110.2006912  77.2567415  19.3411970
 109.5949936  77.9521894  18.1410027   7.5768137  96.3213634  37.2012568
   7.2040969  95.9158230  37.9841042   6.8169707  96.6169834  36.6997766
  95.6793404  80.5865002  55.6143284  96.6316891  80.6519222  55.6849432
  95.3618908  81.4612198  55.8386374  27.9230785  74.4774914  41.2883234
  27.0897436  74.0225697  41.1665630  28.3261538  74.0420580  42.0394278
 112.1020985  68.1882048  55.2899933 112.1275425  67.3848343  55.8097839
 113.0138683  68.3424950  55.0427771  18.6286080  79.1386986  41.9234085
  18.9893293  79.2927122  42.7965593  17.7171350  79.4239998  41.9870710
  90.1771355  61.4277601  35.6529951  89.4187927  61.7170715  36.1603880
  90.2720833  62.0880795  34.9665546 104.2018127  40.6647873  52.1951771
 103.7890911  40.9772873  51.3900471 104.5842552  41.4492464  52.5883675
  12.2518289  80.8221531  23.0093169  12.3517644  81.7213058  22.6966262
  11.5979218  80.8820629  23.7057710  46.6099739  71.8537855  50.1735735
  46.7098236  72.5664282  50.8047676  47.4790716  71.7545509  49.7849131
   5.3004199  30.9165597  43.9210081   5.8678788  30.8202505  44.6858263
   5.1454824  31.8588185  43.8548613   3.4629425  29.9143696  24.8909402
   3.8365296  29.0556407  25.0890541   2.8614414  29.7520161  24.1642570
 103.6487103  87.5553322  51.5952015 103.2454777  88.0931473  52.2766638
 104.2628574  86.9923496  52.0664883 113.1833267  33.6277556  69.2310810
 113.4815407  33.5228658  68.3275843 113.0328655  32.7339864  69.5389223
  33.8261485  35.9258080  52.1222830  34.6875668  35.7635689  52.5068188
  33.9968944  36.0257435  51.1857510   1.8664464  62.9225826  34.6753025
   2.3943610  63.7032747  34.8427963   1.2911662  62.8544474  35.4373026
  18.7951124  42.2564363  16.8306994  18.7256563  41.7541981  17.6425874
  18.0600476  41.9531727  16.2978351 113.1710052  77.2325706  46.3707113
 113.5014629  77.5000429  45.5131054 112.4348259  77.8210545  46.5379095
  66.1339855 104.6652412  90.7360458  66.8286085 104.1637802  91.1629772
  66.4061832 104.7195435  89.8199654 110.7386208  65.4113483  13.9899898
 110.6931973  65.7051325  13.0801225 109.8430061  65.1481056  14.2016709
   9.2897964  69.3511581  49.2822552  10.0857532  69.0001202  48.8829327
   8.7893999  68.5768318  49.5396519   7.4986875  73.7282228  15.5733979
   7.3073435  74.1712523  16.4000452   6.6502732  73.6619854  15.1351774
  16.4379168  61.1309958  66.4506865  15.6520414  60.6504440  66.1904907
  17.0919383  60.8946514  65.7929420   2.6465538  57.6132917  40.8281183
   2.3020467  56.7456579  41.0396767   2.3397599  58.1732321  41.5412617
 105.2526760  88.1431770  12.1589208 105.5927467  88.9794350  11.8407309
 104.3029118  88.2612514  12.1746886  42.9539824  35.8497453  51.9947529
  43.6993647  35.2492571  52.0018148  42.9034853  36.1794114  52.8919697
 107.5995159  58.5383987  67.2072029 108.3604622  59.0864420  67.3991251
 107.5571632  58.5136366  66.2512636   1.2588328   7.4019927   6.3271344
   0.8501335   8.1796432   6.7072082   1.9371378   7.1562135   6.9562024
  84.3219852   3.4492907  88.1580925  83.6742115   2.7445728  88.1578732
  84.9374104   3.2087091  88.8506317  12.0531309  60.0343084  26.2914109
  12.1116710  60.8844376  25.8554196  12.9428208  59.8612070  26.5991759
  23.3131099  74.4267321  24.5646191  23.0361485  74.2553806  25.4647088
  24.2129230  74.1026878  24.5250988  39.9257541  91.2166309  84.4431782
  40.7520199  91.6968727  84.3893814  39.3393826  91.8018436  84.9226952
  38.7835765  13.3199191  35.9298110  37.8607416  13.3642387  35.6795192
  39.2448997  13.7752843  35.2254987   5.6806695  90.7451534  23.4735179
   5.3537655  90.3699207  24.2911744   6.3133031  91.4080429  23.7502670
  83.8382435   9.3758339  91.4367867  83.7260914   8.8659954  92.2391129
  83.3800220  10.1982677  91.6096115  85.6512642  71.7911959  49.0120459
  85.5839825  71.3101673  49.8368597  86.5073872  72.2174072  49.0524912
  28.6260772  61.9270039  17.3942649  29.2917442  62.4830914  16.9894326
  27.8882933  61.9543791  16.7850375   0.1768130  67.2241354  47.3621082
   0.0834765  68.0383492  47.8566551   0.1478674  66.5356922  48.0265188
  91.5823460  89.6786213  27.3073840  91.4202499  90.6219673  27.3147774
  92.3670578  89.5746517  26.7691922  43.1226015   9.9248618   6.1098522
  44.0536499  10.1413655   6.1598700  43.0080366   9.5614767   5.2317530
   9.3767929  93.4001732  26.5104651  10.0675786  93.5789776  27.1484900
   8.5666519  93.6370945  26.9618726   3.1632578  88.0335808  56.5828848
   3.6248431  88.8254261  56.3069201   2.7213290  87.7258778  55.7915258
  43.3618259   8.8142109  57.1199799  43.1670618   7.9172373  56.8484354
  42.6368618   9.0522665  57.6978970  37.5697088  50.7407522  58.6840773
  36.9813180  51.4785957  58.8441133  37.1937203  50.0204515  59.1900730
  75.2482033  87.9489517  31.9469643  75.3998756  87.5740528  31.0793948
  74.8390055  88.7966919  31.7733502   7.2203881  83.6209869  65.6112432
   6.8701005  83.6917496  66.4992332   7.4681246  84.5160484  65.3794622
  11.7692113  96.2315464  26.4020896  11.7668998  95.7699203  25.5635571
  12.1191955  97.0985889  26.1972141  36.2041402 106.2247276  29.7437954
  35.3435826 106.5405273  29.4682264  36.1772895 106.2599564  30.6999683
  34.6895385  12.2421980  63.2246923  35.6093693  12.2413862  62.9598475
  34.4227767  11.3247550  63.1666565   3.1631124  91.0804653  53.8508940
   3.4166339  90.8784103  52.9502678   3.7049410  90.5021286  54.3877268
  46.6783714  12.3169589  33.0420184  46.2720108  13.0926514  32.6554894
  47.5700331  12.5937235  33.2531476  26.7407799  88.4366989  45.7057571
  27.1467328  87.5701141  45.7273197  25.8007360  88.2620144  45.7508373
   1.9427811  67.3361921  39.2152572   2.5181642  68.0422068  38.9207911
   1.4099383  67.7331066  39.9042940  19.8411679  76.6069698  41.2140131
  19.3938065  77.1867323  41.8304348  19.7943509  77.0666885  40.3757429
  15.0329566  44.3175983  47.4514675  14.3034601  43.8422251  47.8490639
  15.7300341  43.6661005  47.3748779 108.4179974  54.9085999  30.2684903
 108.3226109  53.9616871  30.3709197 107.6143169  55.1839638  29.8274636
 105.2244186  69.6834564  12.1275413 104.7272396  68.8692093  12.0497561
 105.1981831  70.0648642  11.2500036  48.1962872   9.2406291  18.4914446
  47.7624989   9.8994821  17.9492557  48.1467104   9.5916945  19.3805599
  31.4335871  71.7301798  77.4639797  31.3230824  70.8717632  77.0551443
  31.1268830  71.6087723  78.3625507 105.5261707  72.0670128  42.8427553
 105.9205818  72.7638578  43.3672380 106.2630367  71.6713047  42.3772669
  31.6959882  90.1680470  29.1443086  32.4170446  90.5763054  28.6651063
  31.7775393  90.5082607  30.0352836 104.8574543  87.6606941  57.4925470
 104.4189358  88.2127380  56.8451071 104.1839314  87.4791336  58.1480169
  37.7175450  94.3275261  50.6580925  37.2660446  94.8666954  50.0087309
  37.5937605  94.7941303  51.4846420  35.9131837   3.2803583  40.9354496
  36.3162780   2.4148370  40.8674812  36.4343071   3.7360287  41.5965271
  84.7892761  73.9930487  72.5091553  85.1567173  73.5230446  73.2576990
  84.1678238  73.3770323  72.1211481   6.1464053 103.6752319  45.9479475
   5.2434772 103.9074135  45.7310438   6.0668987 102.9075718  46.5141678
  12.3073292  69.4862223  15.7236242  13.1143379  69.9006701  15.4183340
  12.3145533  69.6174049  16.6717660  32.6403308 105.6619835  56.8295908
  32.9253721 105.7163906  57.7417469  33.4513354 105.5641937  56.3306522
  11.8283856  90.0268269  40.9605789  12.0504224  89.6101475  40.1279306
  10.9023118  90.2535152  40.8755302  28.8358593  76.9219589  50.8230114
  29.7912145  76.9505119  50.8751059  28.5534120  77.7835751  51.1297226
   1.7618701 103.4502506  14.4853592   1.5477866 102.9975319  13.6696136
   1.0490494 103.2199955  15.0812626   5.5476713  70.8153534  17.5751817
   6.4589781  71.1073399  17.5529492   5.5652839  70.0151873  18.1002116
   9.8006022  83.8692093  74.7863436  10.3284466  83.6138725  75.5429268
  10.2978349  84.5761681  74.3750095 113.8494301  36.3084149  29.4643283
 113.5631371  36.6806316  28.6302280 113.7964344  37.0372176  30.0826073
  74.6309805   8.1802273  33.9057469  75.0104475   7.5430524  33.3005667
  74.1313124   8.7743384  33.3457494   0.9450106  84.1484070  66.7676020
   0.4525520  84.6625328  66.1277723   1.3476998  84.8010540  67.3404169
  14.4445944  78.5442352  28.0968332  14.3260527  79.4366980  28.4219337
  15.2007055  78.6006069  27.5125813   3.6761802  83.2534885  37.8446484
   3.3006313  82.8405380  38.6222553   4.1202047  82.5404835  37.3856258
   1.3617298  78.0104160  47.9048443   0.5870686  77.5738907  47.5504827
   1.0919203  78.3095312  48.7731552  45.2428865  20.2269888  52.9251003
  45.2995682  19.3064070  52.6690722  46.0920429  20.4174542  53.3237028
  43.3865261  10.2621949  23.5425138  43.5222435  10.7314670  22.7193499
  44.2689657  10.0423276  23.8411713  77.1862268  69.7908401  36.8420577
  76.9267893  69.0492821  36.2952304  78.1431198  69.7819996  36.8193102
   4.7772148  73.5114956  37.7637029   3.9533004  73.8517284  38.1124687
   5.4336476  73.7602329  38.4144402  20.1839900  46.9526148  52.9072475
  19.2443621  47.1235132  52.8430462  20.5074835  47.0534134  52.0120239
   4.4920182  73.3198690  41.9477224   3.7239671  72.8925371  42.3268223
   4.6172982  74.1045904  42.4813366 106.4135742  96.7974091  53.4854126
 106.0785675  97.5354958  52.9762650 105.8300686  96.0709000  53.2664537
  24.5281243  67.7846289  48.2025862  24.9647641  68.5639048  48.5465527
  24.2777753  68.0245161  47.3103905 100.6173229  94.5324993  28.5319209
  99.8574162  95.1027012  28.6487842 101.3229942  95.1243210  28.2711339
  17.3956716  58.9458466  63.8155985  17.7318013  58.6637354  62.9649162
  16.4520240  58.7943983  63.7624598  59.6636963   6.5086347  63.5486650
  59.1228342   6.9295448  64.2168999  60.3368425   6.0422212  64.0442085
  19.6322036  91.9527531  23.0668426  20.3419328  92.5180626  23.3717012
  19.7512567  91.1361694  23.5518742  97.3782635  78.9721727  22.4686480
  97.9340267  79.4842768  23.0561161  97.8928566  78.8867188  21.6660738
  10.7117701  69.3859529  19.0054202  11.5993071  69.6907902  19.1940689
  10.1428378  70.0576067  19.3814969   3.7688437  23.5079551  23.3372426
   3.8876197  24.4545102  23.4157062   2.8472942  23.3635831  23.5520339
 108.9426517  87.1189880  16.8424487 108.1250763  87.4805164  17.1846402
 109.0210629  87.4928761  15.9647882  89.9759769   1.3230456  74.1257334
  89.4369411   1.2540157  73.3377552  89.3450356   1.3792130  74.8433685
  25.7822394 104.1657162  24.0615273  26.2661266 104.3395996  24.8689008
  24.8757982 104.3893623  24.2726660  76.7278099  56.8150282  91.5936375
  75.7736206  56.8907547  91.5887165  76.9107103  56.0562420  91.0395336
  95.8737183  82.2648907  52.1374989  95.1756001  82.2120953  52.7902508
  96.0593033  81.3535690  51.9110441  29.9491143  80.5305767  73.7464905
  29.6185160  80.2197266  72.9036903  29.3336844  81.2157822  74.0072012
  13.3247519  85.2265453  61.5178347  14.2246735  84.9745464  61.7248774
  12.8063488  84.4461346  61.7138910  15.0127900  90.6941891  48.4355688
  14.5597708  91.0093594  47.6534748  15.4300857  91.4741421  48.8013077
  40.9717083  70.2031279  65.4214430  41.6316986  70.5489731  64.8205805
  40.6289482  69.4263649  64.9794149 105.6883144  65.7059956  29.1833234
 104.8980236  65.3340197  29.5748615 105.9311390  66.4230204  29.7691059
  46.9820642  20.5882454  30.4489875  47.0400810  21.0665441  29.6218848
  47.8708649  20.2682471  30.6034660  45.9418249  84.0738583  61.3648462
  45.1508379  83.9406204  61.8871641  46.5165138  84.5919323  61.9283819
  86.8069649  80.3149128   8.1974757  86.2807083  80.8259296   7.5825322
  87.7125835  80.4973984   7.9469240  26.6879535  89.9401093  39.0414882
  25.7314467  89.9197865  39.0112305  26.8939066  90.1841640  39.9438477
  71.8947601   8.0971158  16.9341362  72.8235292   8.3285636  16.9271135
  71.4978647   8.7178022  17.5452447   9.6829516  74.8633480  19.9108076
  10.3219295  75.4515791  19.5084095   8.8478309  75.3235817  19.8272169
 105.8647919  86.5398598  49.3218517 105.5014420  86.0730171  48.5693502
 105.1070118  86.7285061  49.8753929   8.7292510  89.7291660  45.9529591
   8.9284998  89.5361042  45.0368500   9.3703866  90.3947163  46.2023973
  48.5233116   0.7084569  19.0080106  49.1753435   1.2181586  19.4889367
  48.3138180  -0.0222415  19.5897532  36.6866732   3.4801447  82.7211380
  35.7604003   3.6615530  82.8803349  36.6850877   2.7936813  82.0540619
  33.9308095  94.4976997  50.1671982  34.2709541  95.2123165  50.7055807
  33.0619764  94.7944260  49.8964262   7.7636361  69.6082973  34.3323326
   8.0279553  69.7639179  33.4256077   8.5732734  69.3601990  34.7786140
   0.1811403  37.4316645   4.4682431   0.7144468  37.2322750   5.2376974
  -0.6291492  36.9406962   4.6046752  18.5485601  45.0982285  67.2056770
  19.1195858  44.4341898  66.8193960  18.4742618  44.8444366  68.1256247
  19.5376515  74.6428871  61.7648125  19.1368401  74.0331316  61.1453056
  18.8269269  74.8813677  62.3599815  20.8047247  81.0505867  61.0768700
  20.7185483  80.8386421  62.0063257  21.0854363  81.9656181  61.0648918
   8.3584970  79.7434664  60.8932114   7.5376385  79.9882841  60.4660225
   8.7977803  80.5767345  61.0633135 103.7176132  64.0180969  43.8752842
 103.0595875  63.5765982  43.3383369 103.2194138  64.6511316  44.3922901
  62.4623156   5.5153489  90.9501648  62.5838709   4.5692366  91.0297012
  62.4101448   5.8269310  91.8537235 105.3151703  86.1223984   5.3307384
 105.0074768  86.9735050   5.0190169 104.6743679  85.8639908   5.9931856
  90.1586151  81.3868904  12.1434259  90.7906914  81.5454865  11.4423120
  90.6190968  80.8131027  12.7557623  17.6363719 105.3705692  23.0592275
  17.4073434 104.4721222  23.2970762  17.7721882 105.3404140  22.1121931
  20.1175308  87.6285648  63.0203867  19.4012237  88.0032063  62.5077629
  19.7997594  86.7636490  63.2795477  18.8415301  50.1339293  11.8010497
  17.8950143  50.0120497  11.7269778  19.1632414  49.3034124  12.1517277
  99.2196941  75.9199429  44.5186615  99.9191666  76.3787222  44.0533733
  98.4994602  75.8801699  43.8894463  74.0112019  15.1298213  86.1647415
  74.5342445  15.5370069  85.4741955  73.7973642  14.2616999  85.8228874
  17.3346591  88.0306149  42.5495529  16.4613605  87.7599335  42.2661543
  17.4981356  88.8461494  42.0758438  29.0610147  74.1556835  52.2826815
  29.3978858  74.6419334  51.5301466  28.6666465  73.3703184  51.9033337
 104.9501705  64.3876123  18.3800900 105.4157925  64.6197844  19.1835344
 104.6086311  65.2195501  18.0522716 106.7435169  95.4975986  16.6205633
 107.0633984  95.8103466  15.7743382 107.0305061  94.5854187  16.6628420
   8.1426495  31.6173291  42.5270033   9.0381074  31.9554019  42.5366116
   8.2238334  30.7153463  42.8369522  42.9634619  86.1201000  52.7411222
  42.5488853  86.9202137  53.0638933  43.8869572  86.3518047  52.6426363
  13.0180490  69.1010284  33.0191255  13.3835912  69.9242640  33.3430099
  13.7830162  68.5703325  32.7968216 106.5512085  96.8435860  44.5393753
 106.3760662  96.4802742  45.4074574 105.8671856  96.4725494  43.9819860
   9.7850263  89.7612858  37.7823162  10.6249332  89.9954700  37.3874164
   9.2412263  89.4872761  37.0437813  19.6862006  71.8536663  40.3452539
  19.7979641  72.0632839  41.2725067  20.3338933  71.1698723  40.1745176
 103.9268684  83.9791203  42.5309849 104.6189976  84.6196270  42.3668575
 104.3344879  83.1331635  42.3454475  30.0608373  88.6921406  47.1335316
  30.9997916  88.5543060  47.0086336  29.9795818  89.6258831  47.3278475
  45.7975197  23.9431906  14.5530474  45.3323984  24.6851230  14.1664827
  46.6544867  23.9492655  14.1266668  39.4598532  87.7027702  66.5670300
  40.0209045  88.3636475  66.1611986  40.0178719  87.2849369  67.2229719
  62.4164438   8.3343887  87.0682430  62.6725960   7.8779495  87.8696632
  63.0363226   9.0603185  86.9974899  93.4754086  53.8803959  84.9972534
  93.5462189  52.9478073  85.2009487  93.9519787  54.3166685  85.7034969
  14.7773087  60.9174013  62.9826689  15.0072491  60.0887585  62.5623083
  14.2855883  61.3961267  62.3153877   0.5740124  86.3578224  28.0728793
   1.4873326  86.2230206  28.3256745   0.4870498  85.9007072  27.2363901
  10.8377743  80.6116009  51.3741922  11.0117090  79.8131800  51.8726873
  10.7817245  81.3001823  52.0367193 107.1150398  83.3249474  52.4429655
 107.0718098  84.2329311  52.7428436 106.9611645  82.8046799  53.2315540
  14.7860789  78.3203936  44.9110222  15.4943836  78.9642382  44.9117708
  15.1910222  77.5184441  45.2413702  66.0458946   7.8524691  49.1469002
  66.7072821   8.5124862  49.3546867  65.8938074   7.9533380  48.2072544
  32.5104904  85.9873676  50.1207972  33.3586788  86.4298439  50.0887871
  31.9852281  86.5193653  50.7185555   6.6331780  99.5676041  59.1840315
   7.5617921  99.5109749  58.9588642   6.5737557  99.1762733  60.0555563
  12.6965165  58.1228590  79.1657066  12.7699137  57.1690321  79.1331911
  13.0308485  58.3594561  80.0308514  30.9095192  76.1927223  46.8601418
  30.5054832  76.9275951  47.3216057  30.7906342  76.3977432  45.9327459
   8.9722675  72.3809433   9.1453010   8.9365119  72.1122122  10.0633085
   9.4364399  73.2179642   9.1586655   6.4684743  98.8821030  43.6907625
   6.2076646  99.8025513  43.7222910   5.8427453  98.4762764  43.0907631
  25.0679588   1.5291120  14.6520674  25.5500937   1.8977436  15.3922629
  25.6911588   0.9367324  14.2314255 106.5820217  77.0052814  66.7495155
 106.0631275  77.3720932  66.0336733 106.3343620  77.5238323  67.5150251
  41.9712734  83.6627865  46.8546534  41.8077612  82.7289486  46.7226028
  41.1176014  84.0760422  46.7254353 102.9557896  39.5238423  54.1715193
 102.1339035  40.0066328  54.0840197 103.5581207  39.9659276  53.5731936
  93.8498783  58.6785889  71.5007544  94.6957493  58.5342884  71.0765934
  93.3157539  59.1054535  70.8308792  16.4616168  94.5003796  35.1383042
  16.2971103  94.6107101  36.0747862  16.7824101  93.6023331  35.0556493
 109.5638752  83.0839157  46.4991188 109.8003006  83.9451408  46.1547089
 109.8752975  83.0941677  47.4041843  27.2755384  98.2233238  77.6755381
  27.2370315  98.0362034  76.7375946  26.8843484  97.4540138  78.0895042
  10.8850205  74.9045753  38.7921405  11.7373049  74.8112631  39.2177415
  10.4167032  74.1000319  39.0148997 113.5671616  91.9454861   8.8689262
 114.3498039  91.6142273   8.4285039 113.2131100  92.6006413   8.2675529
  29.5031643  17.1420348  32.4449539  30.0872684  16.4001977  32.2876906
  29.1815019  17.3820305  31.5759516 111.7160702 100.6034756  35.9108377
 112.3688126 100.3085518  36.5457964 110.9095383 100.1593971  36.1726236
  32.1140265  77.3005152  31.4863420  33.0198669  77.5390053  31.2893438
  31.8767285  77.8546858  32.2298598  89.2246819  16.1204624  34.1968870
  89.6666527  15.9163797  35.0210452  89.9341297  16.2115300  33.5607958
  13.5665345  86.4135170  37.5024295  14.3815780  86.5046120  37.9960251
  12.9390430  86.9623661  37.9727960  48.2178879  48.0346727  19.2044723
  47.5107670  48.4216976  18.6883116  48.5500288  48.7580919  19.7360504
  21.3489175  62.4316597   5.7020932  21.8406606  62.9094934   5.0341898
  20.6406307  63.0262089   5.9492266  80.5125999  60.1549768  46.9347000
  80.4240513  59.5593166  46.1906672  80.6514072  59.5795870  47.6869535
   2.3750992  92.7302837  26.0762215   2.8315663  93.4823227  26.4534712
   2.0040786  93.0609989  25.2581716  13.8106799  89.0243244  31.4156032
  14.1152990  89.5561218  30.6803274  14.3918645  89.2600822  32.1387029
 104.4724941  12.9148352  91.7648029 104.5455647  12.8956115  92.7190113
 103.9130020  12.1677995  91.5523338  34.0641451  66.3657236  34.9664378
  34.2324710  65.4240513  35.0003099  34.7250319  66.7056227  34.3631721
  13.3732927  51.7436028  51.1044168  12.6150787  52.2752047  51.3467836
  13.6217427  52.0623016  50.2367020  33.0704546   1.6780750  79.6864653
  33.4121776   0.8822574  80.0940609  32.9576755   2.2901849  80.4136753
  75.6863832  83.8420391   8.1884569  76.2850094  83.2485580   7.7349561
  75.7578421  83.5957241   9.1106576  32.0589042  56.3375807  28.4804940
  32.2033119  55.5554247  27.9479408  31.2101150  56.6715860  28.1902742
  99.1041088  71.2138844  24.6591663  99.0946007  71.8078423  25.4097366
  98.1926060  71.1801147  24.3688965  23.8972831  83.1274319  16.0216212
  23.9795446  82.6217079  16.8301404  23.0144787  82.9334641  15.7065582
   6.7855960  94.9133873  39.6110702   7.2007746  94.0549946  39.5273280
   5.9322029  94.7294140  40.0036335  43.0861378  77.3393154  73.9412451
  43.3353758  78.0948019  73.4089375  42.4842310  76.8433952  73.3862638
   2.9878652  95.2043056  51.8383741   2.8884637  94.7283649  51.0138559
   2.5148869  96.0248661  51.6997910  44.8155499  53.2659101  77.6349354
  45.2717161  53.9149570  77.0993185  44.2533636  53.7835026  78.2113695
  87.4776459  71.0652304  64.5885801  86.5865231  70.7241297  64.5125484
  88.0320358  70.2851105  64.6060944  97.0568180  58.2411098  44.5544481
  97.5839329  58.6586809  45.2356339  96.9116879  58.9311838  43.9071703
  12.3763454 101.5039730  73.9745855  13.2976222 101.3085747  73.8034153
  12.1472847 100.9460926  74.7179127  20.1833344  85.8254242  21.8037415
  20.5969644  85.3087807  21.1122036  19.7127211  86.5163898  21.3375592
  95.3648281  47.5778723  73.4830141  94.5830536  47.1415520  73.8216639
  95.0739002  48.4668493  73.2797718  57.6613998   7.4765384  31.8716049
  57.4450350   7.7657366  32.7580500  58.6181688   7.4842995  31.8439722
  18.6029804  98.8385582  15.0239563  17.6934612  98.5885525  15.1867628
  18.6675584  99.7350407  15.3531516  17.5347900 100.1641464  50.4660225
  16.7199600 100.1198196  50.9663391  17.9917550  99.3507290  50.6799507
  18.0249715  61.5610743  30.2724051  18.2662189  61.5044928  29.3478346
  18.6390293  60.9762287  30.7163858  37.3049569  68.2743788  66.3051510
  36.6785240  68.7606287  66.8412256  37.4059463  68.8045454  65.5146074
  39.7615480  80.5171204  27.1449184  39.9881935  81.4464092  27.1092677
  40.5988789  80.0710773  27.2720218   6.9030076  66.3944578  16.6758049
   7.6765573  66.8977451  16.4217305   7.1310031  65.4868698  16.4744794
   4.7531861  76.2382317  43.1370544   4.7785535  76.6343117  44.0080929
   4.7060859  76.9823837  42.5368404 110.5580711  69.9968052  48.5889912
 110.2937508  70.1904821  49.4883537 109.8398781  70.3302622  48.0511904
  68.2292223  18.5845470  18.8931561  68.7487745  18.4626102  19.6877837
  68.5208225  17.8863728  18.3068514  13.9517915  92.4285221  25.8615351
  13.3736873  91.7249966  26.1566210  14.7909331  91.9971848  25.7002115
  23.1942153  81.8204975  42.4919701  24.0236521  81.8210316  42.0141983
  22.5775909  82.2537613  41.9018078  11.4484894  59.0921402  74.1775274
  10.8460760  59.8349857  74.2163277  10.9971404  58.3928013  74.6502256
   4.2377406  65.5873251  66.3857698   4.9078152  65.8581018  65.7581472
   3.4678853  65.4004765  65.8485174  73.4604120  95.9705257  45.6952333
  73.3323765  95.7668591  44.7687578  74.3335056  95.6334972  45.8961153
  33.9228463  81.1483574  32.5592041  34.3548250  80.4687595  33.0766702
  34.1598725  80.9470654  31.6539240  24.4879818  75.1849222  43.1135464
  24.1576219  75.5411720  42.2888136  25.1265907  74.5225477  42.8496027
  19.5156753  60.3113508  58.1520414  20.2783442  60.7724380  58.5012817
  19.3171573  60.7635546  57.3320818 109.8890877   1.4257377  32.0485854
 110.8129597   1.2625116  31.8587494 109.5425701   1.8071428  31.2419319
 112.4465275  60.9671164  59.0886021 112.1638107  61.5638781  59.7815466
 112.7342701  60.1807547  59.5523596  90.0308037  95.6421947  77.4247885
  89.8622513  96.5059185  77.0482159  89.3506908  95.0813866  77.0517206
 111.8829155  82.1192741  34.2771482 111.1676121  82.0596313  34.9104047
 112.1913910  81.2185097  34.1787052  44.5456362  89.0345383  41.6143179
  43.6465883  88.8214779  41.8644094  44.6344900  88.6917782  40.7250214
  22.3938394  57.8595829  62.4559641  21.4659691  58.0391026  62.3041010
  22.6133108  58.3739948  63.2327795  22.8439713 100.2676010  22.0705771
  23.6728406 100.2439976  22.5487471  22.3810291 101.0239506  22.4309349
  34.0517521 101.3008881  51.3297272  34.1945410 102.2384357  51.1999416
  33.9529824 101.2024879  52.2767162  39.2284799  61.2155104  36.2942457
  39.5644808  62.1102333  36.3472104  39.8522806  60.6950474  36.8004298
  42.7067804 100.0688744  14.4985306  42.1226835  99.7234440  15.1736140
  43.3721781  99.3898487  14.3871903  22.1686363  89.3876648  42.9541349
  21.4702940  88.8777065  43.3646154  22.6876569  88.7412643  42.4755716
 103.1735897  58.3519363  48.5579967 102.6653099  57.7892971  49.1422224
 102.8499889  58.1420755  47.6819420  83.5059166   4.2168790  19.7424471
  82.9410172   4.3201107  20.5082560  83.9391518   3.3738911  19.8762858
  43.5612917  75.2366781  22.9470849  42.8994417  75.3162718  23.6339998
  44.0093374  76.0825396  22.9470158  97.8776073 102.1109200  28.9124322
  97.1816921 102.0016289  28.2643604  98.5333347 102.6507378  28.4710217
   7.6283574  65.3224850  35.4575062   8.0991524  66.0288906  35.8997440
   7.3517817  65.7038975  34.6242833  16.6814971  77.8178072  37.8512716
  16.4651179  77.4200153  37.0079613  15.8566749  78.1955433  38.1565833
 101.3754749  43.0383921  66.5062714 100.5588436  43.2312012  66.9669008
 101.1279106  42.4009609  65.8364773  17.2028446  80.1579189  15.4285657
  16.7896152  79.2985868  15.3448236  18.1405771  79.9810886  15.3536046
  38.1330585  72.2231245  40.9222984  37.2291422  71.9144344  40.9845591
  38.2753611  72.7125406  41.7325163  13.6975539 103.0567551  47.7329636
  13.9448833 102.3230553  48.2957602  12.7770507 102.8983593  47.5236368
  20.9412694  76.8753672  30.4222727  21.3124800  76.1047697  30.8519363
  20.3921223  77.2820711  31.0925412  55.7101965   2.7660459  22.0967174
  56.3741970   2.2349612  22.5363588  56.1170626   3.6271653  22.0009756
  24.6859002  91.8185329  25.9407425  25.1131248  91.9304466  26.7899704
  24.4244099  90.8979034  25.9236455  12.5232899  83.0229568  34.2944765
  12.8436983  83.1205654  35.1911592  12.3894763  83.9201641  33.9889479
  93.1723151   0.4504845  55.9192848  93.7391314  -0.3155067  56.0099173
  93.0625710   0.5567715  54.9743557  36.6764688 107.2471619  37.7593565
  36.9988561 106.4043236  37.4400973  35.7666993 107.2830772  37.4639606
  75.2190924  96.3197613  76.6838646  74.8321247  95.6355095  76.1377001
  75.4453182  95.8749104  77.5006628  15.8637416  99.5938396  41.8461514
  16.0203254  99.4545937  42.7801371  16.7314553  99.5346928  41.4463949
  11.7920780   7.1530378  48.9092636  11.3336337   7.2827536  49.7394657
  11.4146638   7.8082454  48.3223248  28.6668158  80.8253288  36.5712857
  27.7422023  80.8474541  36.8179274  28.9071107  81.7451763  36.4600706
   5.9779513  95.3787136   5.7662493   6.5130389  94.5907116   5.8609861
   5.4649431  95.4183388   6.5733951   6.8376422 101.3076401  16.9833148
   6.1760700 101.9971180  16.9269753   6.5124202 100.6159782  16.4070618
  26.6610217  90.8693981  12.8217709  25.7929134  90.5222607  13.0269885
  27.1873069  90.0953484  12.6215303  24.7947192   2.8416103  78.5729504
  25.4482532   2.7078032  79.2594051  25.3077555   3.0331218  77.7878714
  47.5043106  80.7433319  70.1047564  46.7080545  80.2205849  70.1993608
  47.3651695  81.2489128  69.3039703  48.7771320 107.2315502  40.6595993
  48.8166285 106.2807655  40.5562258  48.1030512 107.5119781  40.0405598
  44.3129158  14.4262207  53.4699297  45.0775814  14.3154395  54.0349531
  44.5104933  13.9017630  52.6939535   3.7523046 102.0031834  37.7099657
   3.2163626 101.4529419  37.1387911   3.4445453 101.8021679  38.5937691
  96.1353970  97.8748989  56.5715408  95.2254486  98.1353569  56.7143059
  96.4147854  98.3868408  55.8125305  29.5106196  11.8896341  40.9429789
  28.8564563  12.5875187  40.9784651  30.0880051  12.1390319  40.2214098
  24.0458083  93.7643719  38.9608932  23.4567404  93.0765438  38.6508608
  23.5242295  94.5656013  38.9137840   9.0642804  86.1757660  62.5904131
   8.5761005  86.4359379  63.3715820   9.3470877  85.2795410  62.7721643
  84.1790485  85.7353306  48.5046053  83.8099575  85.8889008  49.3743277
  83.4178829  85.6900501  47.9259777  21.4326477  87.6713181  55.4018927
  21.5073705  86.9292927  54.8018551  21.5727067  88.4407139  54.8499489
  75.2008963 107.1991920  57.3984623  75.9960413 107.7066517  57.2357893
  75.4182434 106.6477871  58.1500912  36.6789341  83.7827682   9.0832132
  36.4007759  83.9068413   8.1757641  35.9178734  84.0389347   9.6041703
  54.9996138   2.5396511  56.9408846  54.9101400   3.4901413  57.0101213
  54.2449617   2.1927485  57.4166870  18.8388252  95.4508495  14.5385265
  17.9824567  95.3021622  14.9394703  19.3806088  95.7915974  15.2502799
  12.6120138  77.4951172  24.6192312  12.7867997  77.3645306  23.6872292
  12.4137819  76.6193151  24.9507546  27.8936219  87.5924587  60.2874231
  28.6957645  87.5941563  59.7651243  28.1739664  87.3039246  61.1559772
  30.4239774  38.7911367  69.6534204  31.1683059  38.7931013  69.0515852
  30.7187271  39.3118000  70.4005909 103.1732163   0.3685639  90.0228024
 103.8226208  -0.1588085  90.4879665 102.9174409   1.0431740  90.6518555
  63.9177704  23.8685441  38.8576603  64.5265436  24.4783783  39.2744660
  63.0582809  24.1190624  39.1964173  84.4948769   7.8407532  63.8544416
  84.5537281   8.4857082  63.1496000  84.6773720   8.3391631  64.6510029
  10.3890014  94.7291470  48.2656240  10.7573307  94.7444725  49.1489887
   9.4419569  94.6994877  48.4014893  22.2234654  98.4656525  51.9888878
  22.0127058  97.6503658  52.4440002  22.6449561  98.1845474  51.1767578
  96.8720150  98.2798862  49.6993685  97.2220516  98.7456703  48.9399290
  96.9166088  97.3555183  49.4548607  13.0176330  71.9460773   9.0727359
  13.7656605  72.3205233   8.6074674  12.4171078  71.6721201   8.3795202
  12.2875583  79.6703196  48.3600378  12.2781003  79.7425556  49.3144608
  11.5485466  79.0972471  48.1558752  14.9947584 105.8231544  39.9642110
  15.1886964 106.7601395  39.9901938  14.1270399 105.7691765  39.5637321
 107.5999737 104.5841217  44.0317345 108.0344200 104.7387981  43.1929493
 106.7017841 104.8856258  43.8954449  33.6949515  71.3826847  69.2314053
  33.6042738  72.1743393  69.7617769  33.6942649  71.6984081  68.3277702
  17.1191442  98.4182072  44.1272879  16.7289031  97.5758743  44.3605614
  17.8355217  98.5314846  44.7519493  10.9031069  40.3892422   6.4103419
  11.8251765  40.6450796   6.3865477  10.4415965  41.1819124   6.6840428
  19.5783198 101.8507671  51.3243389  18.8431132 101.3138294  51.0286951
  19.6319664 101.6859531  52.2657156  34.8112774  13.5377789  36.9263601
  34.8398757  14.4842029  36.7860198  35.2054405  13.1665790  36.1370087
 104.7017002  99.7220898   7.9576606 103.8648796  99.3603706   8.2494301
 105.3509235  99.3188095   8.5339451  37.5128150  13.7171865  30.0271130
  36.6849232  13.2394052  29.9766064  38.0458546  13.3478081  29.3230820
  59.1776323   4.3643838  56.8235826  58.4128189   4.0741435  57.3206329
  59.8303604   3.6789948  56.9664812 107.6794338  54.5873213  33.1068277
 106.8737602  54.0895081  32.9678988 107.8441906  55.0156498  32.2668147
  18.4119892 101.1251831  64.3913841  18.5742235 101.9459629  64.8564053
  18.5213411 101.3480091  63.4669256   4.3568530 107.1050374  69.8778152
   4.3142095 107.4794762  70.7577038   4.2966810 106.1598603  70.0165653
  53.5971975  85.3966808  46.7588186  52.7458906  85.0399113  46.5054035
  54.2300987  84.7482395  46.4503002  20.2257967  90.2674198  38.3273387
  20.6344175  89.7453594  39.0177822  19.3796730  90.5267334  38.6921167
  38.7844276  94.0882015  12.9498625  39.4740343  93.9164543  12.3086309
  38.6666346  95.0378418  12.9263651  59.3075466  77.9263210  39.7145343
  60.2582979  77.8157139  39.7225499  59.1583157  78.7499571  40.1788425
   6.0300767  76.4518690  37.4403191   6.6000307  76.1032104  38.1257558
   5.4045850  75.7481003  37.2679734   8.6535174  97.4005604  12.4511945
   8.0361319  97.6775551  11.7741871   8.7404692  96.4558411  12.3240066
  15.9743917  80.8672905  17.7232325  15.4267919  80.0829792  17.7581549
  16.3157582  80.8814430  16.8290842  82.4337864   5.6325400  57.3892641
  81.9470024   5.2219445  58.1038904  82.3698902   6.5714157  57.5643682
  95.7714748   1.4142178  17.2676492  95.9794712   1.6960579  18.1584561
  96.2176800   2.0477122  16.7056727  45.1735353   7.0292544  16.0533929
  45.7964706   6.9196218  16.7718387  44.6442461   7.7848953  16.3085222
  98.0376816  82.0743275  44.1819048  97.1516800  82.3227787  43.9182663
  97.9610538  81.1570740  44.4446039  26.8260312 105.1787949  44.5172453
  26.9548368 106.1260605  44.4688654  27.5360847 104.8132706  43.9895678
  30.7572651  89.5044136  71.8959045  31.5894961  89.1408539  71.5934944
  30.8960199  89.6782398  72.8269053  46.8829823  76.1125088  58.6066818
  47.0213556  76.9340229  59.0780592  47.7036428  75.6322050  58.7164783
  25.8536243  99.7640800  25.9282064  25.5092287 100.6245422  26.1674213
  26.6214323  99.6492863  26.4881420  95.7335091  25.3405213  21.4016080
  95.7452011  25.1123786  20.4720664  94.9331474  25.8537674  21.5122128
  36.1967921  62.1907520  42.8030443  36.7941880  62.5605869  43.4531021
  36.6298962  62.3464680  41.9637585  57.9773951  97.0053196  72.5470352
  57.7458382  96.2872601  71.9579601  57.4908733  96.8221283  73.3507586
   7.6971692  60.9263277  48.0042458   6.9568425  60.9360552  48.6109209
   8.0011761  61.8337107  47.9827785  39.5600438 102.9287815  70.5630255
  39.2008090 103.5481358  71.1983109  38.9259529 102.9263306  69.8459768
  60.6992197   7.6640117  42.3786926  60.7424641   7.8858471  43.3088255
  61.0400200   6.7708969  42.3293734 103.6389542  14.1948473  63.4578657
 103.8404942  13.2610130  63.3981705 104.4941330  14.6248376  63.4592104
  31.7110085   2.4392824  14.6910644  32.0936918   2.6052737  15.5525935
  31.0890698   3.1555745  14.5632076   3.2767248  62.5156784  28.7291336
   3.5712323  63.3650875  29.0577698   4.0013248  62.2044373  28.1866241
  61.1900425  11.7769313  66.2563372  61.7511654  12.1953011  65.6033897
  61.1160374  10.8690703  65.9621572  76.4198494   4.2513159  45.5232382
  75.5240059   4.5494723  45.6807184  76.8444729   4.3060327  46.3793564
  19.7032845   6.2943453  44.8715496  18.8099217   5.9934133  44.7055006
  19.6043801   6.9927657  45.5185890  66.9471359   0.9932467  48.0701828
  67.2713995   1.8858448  47.9503822  66.9187975   0.8741132  49.0195179
  14.1970980  74.4707441  53.8143826  14.9629784  74.1662359  54.3011379
  13.8249874  73.6761427  53.4317875  46.3001013  78.7472963  59.9363279
  46.1151981  78.0426884  60.5572748  46.3985682  79.5276165  60.4818869
  67.0801449   7.2474509  73.3657551  66.5243101   7.4957007  72.6270771
  67.6291895   8.0159587  73.5212564  34.5815420  82.8546143  27.8556943
  35.0170135  82.7204418  27.0139122  35.2867413  82.8038788  28.5009456
  41.0063601   1.6169867  76.9019175  40.1133537   1.3066369  76.7520857
  41.0219002   1.8646599  77.8263903  33.6185336  76.6430044  47.1045637
  33.7463260  77.4258661  46.5688086  32.6935625  76.4240170  46.9918585
  32.2462106 100.1938534  49.4250107  32.9896212 100.1452827  50.0260210
  31.8595958 101.0535812  49.5912457  19.2368317 101.0920715  16.4321876
  18.9532864 101.9847012  16.2345576  18.7841988 100.8717060  17.2463083
  68.7113667  16.1250186  42.1235609  69.1304064  16.3575673  41.2949705
  68.6432314  15.1705921  42.0979214  27.6272917  92.7069759  45.7046509
  27.3110461  93.2503510  44.9828720  27.3215556  93.1548691  46.4934206
   7.3395598  53.7098265  35.2146840   6.5405589  53.4282160  34.7691250
   7.3204243  53.2501602  36.0540748  17.1596467  94.0431118  26.5327692
  17.0206320  93.3212185  25.9197617  18.1045759  94.1947174  26.5139365
  35.3567052  98.1959629  59.3753719  35.1433516  98.9664173  59.9017859
  34.5946431  98.0742931  58.8090754  11.7332101 102.2119331  19.6137595
  11.3798070 101.3337994  19.7560060  12.0158064 102.2111320  18.6992264
  29.9257207  93.1638432  61.6964483  29.9763083  92.2950935  62.0951414
  30.0545645  93.7700272  62.4259424   9.9262077  76.1981344  31.6968799
  10.8282876  76.3105536  31.9966221   9.9436504  76.4674616  30.7785177
  64.7204399  43.6325932  27.1707845  64.0605259  44.3081665  27.0147491
  65.5552673  44.0702200  27.0041060   1.4801113  49.5111084  78.8134336
   2.2813657  49.4132519  79.3278694   0.8102090  49.0573406  79.3248558
  37.2541809  89.3358421  57.4550676  36.6610622  89.9503613  57.8872824
  37.8986049  89.8923397  57.0177364  94.4469261  94.9379444  22.6226807
  95.3501511  95.2515221  22.5768518  94.0256405  95.5135822  23.2609510
  13.1055188  81.0884380  37.0939112  12.6567411  80.5196285  37.7194405
  12.7859640  81.9674683  37.2974610  33.6088395  79.1899061  67.5231266
  33.7860847  79.2090607  66.5826750  33.9129877  78.3277416  67.8066683
   6.8778348 104.8363209  22.1195388   6.6075242 104.4233799  21.2993932
   7.7392662 104.4618320  22.3037171  17.9409277  99.1800499  33.1451964
  17.7411938  98.4707355  33.7561154  18.6984992  99.6210766  33.5296607
  32.5760007  75.4309416  34.4213152  32.5773096  75.7906675  33.5342836
  32.0073485  76.0195971  34.9176574   8.5361797 102.5651646   8.8128352
   9.2458785 101.9568443   8.6066735   8.9759177 103.3993244   8.9773118
  35.2610016  73.6913633  28.5498714  35.6792092  73.0399323  27.9868698
  35.9062481  73.8652515  29.2351818  18.9589548  51.7347860  42.9033470
  19.7459590  51.3185596  42.5517654  19.2832053  52.5064564  43.3676958
 108.5463715 104.9648762  47.9043484 108.8620472 105.8658028  47.8342104
 107.7685356 105.0261307  48.4588385  36.5907979  91.4127827  44.0614033
  36.6984534  92.3328018  43.8201427  37.0132995  91.3385487  44.9171019
   5.7437885  73.3455515  48.8755512   6.4673299  72.9463196  49.3585968
   6.0393256  73.3538961  47.9651546  55.2191162   4.7663069  53.5717154
  55.8347750   5.0119752  54.2622519  55.6966877   4.1290355  53.0406427
  76.8104506  16.0532200  56.3428164  75.8767319  15.8857739  56.4707184
  76.9713163  15.8258283  55.4270363  36.9585299  91.2247086  24.2168331
  37.8261828  91.2745667  23.8156796  37.0853233  91.5602303  25.1042891
  23.1508660  86.1411476  34.5273900  23.1319690  87.0155048  34.9164653
  23.7497425  86.2222004  33.7850904  32.8252387  11.9399083  32.5768685
  32.0619416  11.3951218  32.3849869  32.4807549  12.6549196  33.1119633
  43.5353422   1.6273817  14.0318573  43.3230400   1.1224157  13.2468927
  44.3865013   1.2898587  14.3108451  13.4171093  99.3321991  54.9086094
  12.6652348  99.8757362  54.6730518  13.1194890  98.8264275  55.6648111
  22.1961117  35.6855631  86.6370583  21.3392138  35.6892037  87.0636082
  22.2327042  34.8451900  86.1802578   6.9825858  90.7604694  61.6675425
   6.0995781  90.7770634  61.2984180   7.4115533  90.0254250  61.2294483
 109.5832539  81.4580059  53.0578327 108.7249947  81.7816257  53.3314848
 110.0420475  81.2733459  53.8773680  14.5578742  45.6172800  42.3581362
  13.9629543  45.5959320  41.6085720  15.1539469  46.3422823  42.1702480
 113.0396938  84.5020962  44.5551825 113.7212849  84.9542141  44.0579367
 112.4666882  84.1247463  43.8877153  13.9062226  93.7705517  16.9754088
  14.0775311  92.8511333  16.7715585  13.4073639  93.7459087  17.7919662
  44.1962814  68.5821581  44.7842121  44.1980314  69.4027853  45.2769566
  44.0479231  68.8480091  43.8767195  51.9027090  32.8401327  29.9533534
  52.2417974  33.5146451  29.3648958  52.6837826  32.4491572  30.3448772
  27.3585749 107.0716190   1.1283417  27.4668956 108.0007744   1.3312398
  28.0818319 106.8702221   0.5345634  35.4128265 100.3659439  81.2825775
  35.8579278  99.8442173  80.6148052  34.4930363 100.1104069  81.2124634
  27.1753287  87.3269653  65.7726860  26.8850231  86.9196510  66.5888023
  26.4483237  87.1906567  65.1651335   1.6035531  67.0939493  58.1953049
   2.4329707  67.2578669  57.7464962   1.1153241  66.5281391  57.5972033
  32.8295183   7.4676043  21.4361143  32.8165865   8.0223620  22.2160554
  33.7434435   7.1962935  21.3503003  89.3707752  99.0488338  58.9201546
  89.2467022  99.9721050  58.7001181  88.5703754  98.6205959  58.6165190
  72.8337908   5.4232067  25.4288507  73.2431889   4.9531966  26.1552906
  72.8425646   6.3406020  25.7018709  12.1240389  70.9304476  45.5900192
  12.6765049  71.1810446  44.8496056  12.7409339  70.6382847  46.2610722
  16.0285509  56.5977478  45.0208569  16.3208508  56.3785219  45.9055758
  15.2670312  56.0366440  44.8742819  47.9361439  60.2543974  24.0338731
  48.5113955  59.5706129  24.3770313  47.0516157  59.9198580  24.1819620
   5.1948440  76.7863894  75.9630060   5.9948224  76.5412188  76.4279366
   5.5008292  77.1222019  75.1204920  16.6542399  56.6047096  26.3964128
  17.1350169  57.2315979  26.9368768  16.5500593  57.0457792  25.5533004
  50.0096130  79.1353750  47.0081520  50.0173521  78.4038401  47.6254272
  49.1040802  79.4455099  47.0156431  17.2173977  83.7550449  75.5478811
  17.9382682  84.3357086  75.7916069  17.6214623  82.8906822  75.4714346
  47.4327326 106.7014122  26.9521189  48.0594826 107.1906090  27.4851298
  47.9743576 106.2214661  26.3256025  39.9825597   9.8722309  30.3119111
  39.0751648   9.6690959  30.5390692  40.4953432   9.1837555  30.7353330
 111.1250877  64.8071051  41.4455509 111.8678188  64.2999744  41.7732668
 111.3005161  65.7027006  41.7342854   4.8935723 107.5486088  12.0525360
   4.4386563 106.7938137  12.4261189   5.3936857 107.1884441  11.3201463
  27.6772404 102.4694157  10.6274748  28.0201721 103.0930614  11.2675488
  26.7391539 102.4271679  10.8130550 104.0584755  80.3447723  39.3947339
 103.3735752  80.5351543  38.7537193 104.4118214  79.4976139  39.1232491
 106.1215973  66.9566345  17.3006451 106.8258667  67.2805929  17.8621459
 105.3178501  67.2313881  17.7419329  57.7781105   4.4797018  48.7452698
  57.4222469   3.6701182  48.3789825  57.2549486   5.1740551  48.3447647
  69.4438314  12.7499712  47.6561308  69.2932749  13.0059791  48.5660887
  70.2018261  12.1666491  47.6937056  39.1894531  33.6209679  78.7726927
  39.1313553  32.6664162  78.7316179  38.6587501  33.9251256  78.0364323
  43.6182833   7.2369051  37.4595857  43.4507227   7.9018569  36.7917585
  44.5661402   7.2624886  37.5905275   1.1219580  94.5418739  43.0595446
   1.6551894  95.1706409  43.5459042   1.3732783  94.6714878  42.1450663
  28.0998945  84.2780018  80.4664135  27.4220586  84.0181065  79.8425341
  27.8236079  83.8888931  81.2961674  12.9312813  30.5912280   6.6013962
  12.1583629  31.0083985   6.2208724  12.5796938  29.9848723   7.2532791
   2.4538119  87.0145893  54.1780138   1.9482820  87.5941372  53.6081076
   2.7827564  86.3314342  53.5937834  96.7578506  97.4499416  14.6617198
  97.1631432  97.7300549  15.4823947  97.4439812  97.5649071  14.0042734
  26.4010763  34.3503547  35.6421590  25.8413601  34.3352914  34.8658085
  25.8346391  34.6807933  36.3394308  27.4480605  91.2430763  41.6117144
  27.0106030  92.0534897  41.3507748  28.3570981  91.5004063  41.7655420
  27.8505921  73.7665510  38.1671929  28.7713599  73.5147095  38.0965304
  27.8313422  74.4069719  38.8783360  33.4579349  44.9707747  56.4837599
  33.3415151  44.7785378  57.4142027  33.6836267  45.9006214  56.4577103
   3.7790278  93.0474663  67.1912670   4.6999091  93.1965065  66.9767952
   3.7725559  92.2061920  67.6478338  27.9420376  56.0963821  71.8790102
  28.4387040  55.2828503  71.7911720  27.8150296  56.3977861  70.9794235
  30.7777667  90.4141235  78.6542511  30.5750585  89.8148727  77.9358864
  31.2829900  89.8854160  79.2718649  38.8472772  54.9877071  52.2700405
  39.7789764  55.1865959  52.3628378  38.7070084  54.9331379  51.3247490
  58.6769247  92.6190186  69.4729662  58.3981276  91.8329620  69.9426603
  58.6196041  92.3784637  68.5482597   2.5723070  85.2207851  52.0246029
   1.7251080  85.0949955  51.5972137   3.0623263  84.4232655  51.8244171
  31.7186880  62.8009558  56.4719582  32.5084949  63.2073689  56.8286991
  31.7947030  61.8776846  56.7128372  36.3407660  78.0206490  56.5951729
  36.7023563  78.7815666  57.0495796  35.4951572  77.8690910  57.0173216
  91.0485840   3.2690045   4.4291246  91.9163132   3.4630036   4.0746760
  90.9367561   3.8948414   5.1447046  92.8168106  93.2116985  36.1113858
  92.6310349  93.7735748  35.3590488  92.4206924  92.3701191  35.8854055
  48.7849808  92.9752159  65.8561611  49.0418577  93.5352993  65.1236629
  49.2212820  93.3599567  66.6163254  35.4474330  75.5116224  14.8049176
  34.6360993  75.1476717  14.4506419  35.1778293  75.9651041  15.6036043
  24.1549659  70.1829433  53.6978245  24.6024036  70.4749060  52.9036045
  23.2452154  70.4533005  53.5733461  12.6036930  69.0390635   4.0597466
  12.6224077  68.3240843   3.4235981  12.4487460  69.8236465   3.5337681
  50.3927088  31.2105608  59.4776917  49.8839378  32.0105696  59.3458891
  49.9280453  30.7428026  60.1716042  37.9502773  95.3179073  41.3858318
  37.0333982  95.5923176  41.3697100  38.1539273  95.2175331  42.3157167
  23.9948130  56.1411953  43.5970736  24.6429968  55.5457973  43.9733505
  24.0450096  55.9849310  42.6540518 106.3174915  91.3609791  20.4218626
 107.2370720  91.1902046  20.2182913 106.0548878  90.6271076  20.9774709
  22.4137139  74.0271091  27.2046185  22.4131322  73.5584831  28.0392575
  21.7590570  73.5727167  26.6743517   3.0102465  98.0626678  23.1277180
   3.9449453  97.9623985  23.3080411   2.8342858  98.9904404  23.2842970
  37.1747971  80.4286766  26.1430860  38.0847955  80.4244614  26.4399290
  37.0437074  81.3066864  25.7851052  48.0025721   2.7412882  80.8474445
  48.6098385   2.9480660  80.1370144  48.4535885   2.0707881  81.3605213
  24.8039556  67.2629547  33.4966588  25.7608032  67.2478867  33.4754252
  24.5790434  66.9572735  34.3754101  12.7102900  94.9998379  41.9552088
  12.4038172  95.8963203  41.8186951  13.6125183  95.0988388  42.2592068
 104.6056271 102.3693371  18.5772800 104.0309429 103.1168938  18.7419510
 104.6436024 102.3020077  17.6232064  31.9035959  94.1136742  10.2051520
  31.6760039  93.2304478  10.4955482  31.0844350  94.4719315   9.8633069
  20.6438041  96.9893646  32.3162127  19.8381460  97.0492744  31.8028355
  20.4292297  97.4103451  33.1486583  68.7486076   8.3703357  30.9782100
  69.4425774   7.7405155  30.7833719  67.9408455   7.9215592  30.7284999
  26.2199545  12.9682910  38.8332963  26.3033986  12.4239874  39.6162415
  26.4789534  12.3933399  38.1131673  40.2340317   2.0698380  29.8064780
  40.2730370   2.4104805  30.7001615  39.5187402   1.4339921  29.8235250
  31.5158367  81.3646793  21.8394446  30.8731508  80.7180119  21.5478778
  32.2040510  81.3348866  21.1748362 111.4798737  62.6592875  60.9065819
 111.7435265  62.7626610  61.8209314 111.0878658  63.5009193  60.6737280
 105.5707264   7.1806663  51.0700846 105.2751064   6.3623387  51.4690590
 104.8531818   7.4377292  50.4910469  77.9713440  91.5582943  41.2927389
  78.4978390  90.7606030  41.2405300  77.7164412  91.6172028  42.2134876
   3.1307623  87.9322529  23.1526518   3.5169077  88.2142258  23.9818764
   3.8220376  88.0742836  22.5059724  85.5907536   9.2996311  23.3149743
  86.0663986   9.9604243  23.8183093  86.1450863   9.1346371  22.5522637
  54.4947720  19.6383655  26.7991233  54.6751404  18.9490747  26.1599231
  55.3562403  19.9939561  27.0174265  76.4465761  25.4083753   2.8493622
  76.4842558  24.8359561   3.6156181  75.7943487  26.0708976   3.0771616
  69.7040319   1.0940536  37.0151091  69.1308069   1.4656249  37.6856184
  69.1617203   1.0626213  36.2269807  55.5824375  29.4482017  65.7998562
  55.9669876  28.5825801  65.6618214  56.1420488  29.8562980  66.4605570
  10.7042265  10.3947616  67.6817179  10.3834581   9.4978571  67.5873756
  11.2914896  10.3609169  68.4368372  53.4033346 104.2833042  58.2100487
  53.9952517 104.0025902  57.5121498  53.3885336 103.5474205  58.8219929
 113.3204079 103.5227776  26.7411947 113.1799316 102.6758385  27.1644974
 113.3598900 103.3198071  25.8065963  15.8396482  95.8346081  53.5279942
  16.4279580  95.2537346  53.0455923  15.2480817  95.2434444  53.9936304
  57.6986885  39.3084264  25.5549145  57.4043989  39.7786641  26.3349795
  57.9710436  39.9971890  24.9485660  96.1843014  19.7320473  25.2840638
  96.4934826  19.5422173  26.1698413  96.2348843  20.6851792  25.2118492
  75.7205582   4.9520093  56.1849308  75.6977701   5.8321238  55.8092833
  76.4491034   4.5200491  55.7389832   7.0412743 100.2732468  81.2088203
   6.5743738 100.6646347  80.4705429   7.1484959  99.3540478  80.9642410
   9.6763551  75.1575089   1.2741265   9.2820543  75.6760025   0.5727538
   8.9331043  74.7435999   1.7128606  82.9730225   6.7225212  74.1816473
  82.0699406   6.6539216  74.4914436  83.4865379   6.8812287  74.9737024
  19.8010087 105.4500771  28.2958364  20.4335141 106.1646652  28.2214546
  19.0192783 105.7746601  27.8488731  77.9570436   5.2103728  51.8145037
  78.4624290   5.7223153  52.4459600  77.0506144   5.2913207  52.1112680
  88.9318848  31.6960669  58.4411287  89.4230556  32.4302149  58.8099098
  88.7250900  31.9708586  57.5478411  55.2541208   7.4838752  36.9452667
  55.1633453   6.9869870  37.7583456  54.5488739   8.1301618  36.9795227
  69.2743397 101.2847233  48.0309868  69.9538088 101.2445831  48.7039948
  69.7569180 101.3131332  47.2048235  85.4809475  12.7738762  79.8842430
  86.1765671  13.3821368  80.1339722  85.8109760  12.3433328  79.0956068
  72.3369884 102.5180626  40.9330797  71.7814207 102.4250984  41.7069864
  73.1770706 102.8223419  41.2764645  98.1940651   6.6156286  23.2357574
  98.0547619   6.2415153  22.3657751  98.5874557   7.4719822  23.0680394
  39.5914388  90.0850201  64.0380144  38.6868691  90.1173306  63.7266588
  40.0005388  90.8667946  63.6669207  92.7239990  10.8523417  24.1390085
  92.3555946  11.6687071  23.8012910  92.3329735  10.1695514  23.5939193
  37.6213932  92.6171017   6.3018900  37.4543643  91.8132877   6.7940468
  37.5993657  93.3106232   6.9612694 112.4869156  94.0135384  38.8356686
 112.0880985  94.1908932  39.6875620 113.1355667  93.3320999  39.0120888
  64.6584797  81.8430519  63.1893826  64.7953033  81.6522980  64.1173506
  64.7114897  82.7969742  63.1305981  32.2205091  99.1926384  40.6737232
  32.4152994 100.1237679  40.5674314  31.4579391  99.1719532  41.2519026
  93.4972095   9.5786649  26.2790537  93.1833744   9.9034631  25.4351091
  93.9321995  10.3318036  26.6787982  76.6865683   9.1464984  44.9896049
  76.4752626   8.6166728  45.7582808  76.6772175   8.5258251  44.2609692
  36.1662459 103.4025955  42.2413015  35.4910636 104.0810966  42.2402096
  35.9648061 102.8654861  43.0075645   2.1854687  86.1322021  20.6147408
   2.8366071  85.7890034  20.0028086   2.4612291  85.8001041  21.4690804
   4.9535403  89.7780418  16.4712155   4.2438376  89.2890930  16.8877232
   4.6050966  90.0223064  15.6138039  57.1371603   7.3960823  34.6012449
  56.6733408   7.9311544  35.2452970  57.6316881   6.7657775  35.1250696
  34.3735957  78.3753777  25.4167485  34.7568536  79.2522192  25.4389811
  34.6390200  78.0194044  24.5687723  41.8657684  89.5749760  26.3629532
  42.1801949  90.0736237  25.6088185  42.0920944  90.1162910  27.1192503
  59.5243502   3.2548717  59.9733448  59.7173309   2.7873576  60.7860088
  59.7471142   4.1663313  60.1626873  72.7537203   7.5419909  44.5066833
  72.1110868   7.4391752  43.8047695  73.3926916   8.1631923  44.1573095
   0.1761143 104.8067856  58.0539417   0.7318351 104.1639996  58.4946585
   0.0332760 104.4413376  57.1808529 101.9309139  12.9510427  67.6001501
 101.3527775  12.8952622  68.3609915 101.3601971  12.7745914  66.8522263
  90.8196449  86.3743782  42.8606558  90.8333206  86.3623905  41.9036293
  89.8902321  86.3421440  43.0873346  21.1488080  74.6053314  39.2839789
  20.6769967  74.5124912  40.1116323  20.4926968  74.9350405  38.6699414
  56.6724396  24.6327281  43.5927534  56.0853767  25.3395915  43.3245516
  57.5507259  24.9736333  43.4235525  13.7381232  76.9127131  52.6444817
  14.0489948  76.0259867  52.8269768  14.5213139  77.4591875  52.7093554
  86.5695953  20.9088540  44.7654152  86.4150810  20.0836396  44.3056583
  87.2228527  21.3615584  44.2319822  42.1973801   5.5854475  48.8634682
  41.4912271   6.0826862  49.2761803  42.7749586   6.2525403  48.4924984
  47.5022984 104.5073414  35.4263997  48.1700802 105.0401211  34.9946070
  47.0654297 104.0449333  34.7111630  40.4160023   5.4343498  23.9485216
  40.6244612   5.1708269  23.0522323  40.5533266   6.3816035  23.9577413
  49.8774576   7.2146332  10.7322276  48.9375973   7.1786314  10.5544746
  50.0121832   8.0719841  11.1359966  85.4414368  26.3720012  55.4309273
  85.6986713  25.5592394  54.9956417  85.0869370  26.0902333  56.2742376
   4.1583541  60.1639605  82.2769928   4.5362103  59.2883492  82.3592377
   4.1282079  60.3241873  81.3337803  42.1258307 103.2205105  24.9809861
  41.6547632 104.0471363  24.8760486  42.3102427 103.1672955  25.9187460
  85.6237411   1.0500198  52.7916908  85.2360153   1.1152672  53.6644077
  85.1215649   1.6673258  52.2597313  24.3510795 101.3636494  50.4745817
  25.1568675 101.4028454  50.9897518  23.6568904 101.5732002  51.0994196
   7.2230107  92.2874832  48.9265108   7.8926486  91.6246223  49.0951395
   6.3938189  91.8160152  49.0064621  19.1632521  73.1928205  20.0280738
  19.7311354  73.0524015  19.2704308  19.5163238  73.9760303  20.4501534
   6.5313709  84.7166729  24.1888285   6.8881810  83.8284779  24.1831374
   7.0550317  85.1809788  24.8418474  37.9922962  91.1535549  36.5465117
  38.8212276  90.6793404  36.6115093  38.1525731  91.9796944  37.0026350
  42.0919847  94.3978691  58.9154816  41.1644745  94.3162918  59.1375208
  42.1170712  94.3258953  57.9613209  52.3295593 105.6958103  41.0868883
  52.0484209 105.2585030  40.2831697  52.1599770 105.0568295  41.7791176
  56.4574909  27.6306295  38.4853721  55.8569860  28.3568406  38.6534238
  57.2855997  27.9092264  38.8763404  38.3254623  87.9512215  51.0057449
  38.2691765  87.1742821  50.4494810  37.5623584  87.8901768  51.5803576
  35.4343081  98.7706280  51.0307932  36.2361670  99.0510368  51.4719582
  34.8922181  99.5587444  50.9954929  79.7780609  32.1186233  52.7165365
  79.7454023  32.7158570  51.9692230  80.3723145  31.4210868  52.4398947
  38.2596397  90.4034615  33.9360809  38.2743907  90.5648804  34.8794556
  37.4831748  89.8609829  33.7980247  53.7651253  93.5856247  48.6606789
  53.0106020  93.2723808  48.1618738  54.1037083  92.8046799  49.0985489
  13.6426818   9.6882546  52.6169109  12.9730237   9.5648062  51.9441938
  13.1992555   9.4756478  53.4381342  16.9090116  79.7052431  54.9123001
  16.5685213  79.1796589  55.6362152  17.7016878  79.2459249  54.6349525
  79.6125555  96.1263084  59.2060614  79.8733187  96.9501114  58.7942553
  80.0676632  96.1249065  60.0481462  41.9211102 100.3043365  56.6896772
  41.6347885 100.5026817  57.5812578  41.1363077 100.4217243  56.1543894
 100.7944965   2.9974908  82.5490284 101.0006332   2.0631990  82.5200558
  99.8379230   3.0316696  82.5540257  99.8830128  26.8744779  33.6017776
 100.6694031  26.3411140  33.7173557  99.9498940  27.5493050  34.2773271
  94.9033260  25.0297809  70.4814339  94.9285126  25.9063840  70.8650494
  94.1336536  24.6183252  70.8745527  63.4084272  92.5450611  77.4866724
  63.0171680  92.6628399  78.3522797  63.3316803  91.6065407  77.3148298
  15.5004680  89.5804787  60.8912611  14.7519267  89.4199562  61.4658546
  15.1126933  89.8983097  60.0758839  37.3178887  57.1235561  33.0727053
  36.9024372  56.2976217  33.3206320  36.8760180  57.3804569  32.2633934
  29.7972584  99.7711754  72.8573704  28.9853144 100.1306343  72.4999237
  29.7746921  98.8446045  72.6182270 103.2783318  14.8714554  44.2661619
 104.1859150  14.5904231  44.3825674 102.8518200  14.6530867  45.0947952
  39.6381521 106.2739086  69.5312595  39.3922377 107.1967506  69.5954752
  40.2870655 106.1501980  70.2239656 111.1981964  73.7090731  23.8139153
 110.4534149  73.9510870  24.3643308 111.7017841  73.0953407  24.3486667
  43.3564425  97.7416134  38.7255764  43.4431744  96.7982674  38.5884905
  43.2954979  98.1072807  37.8430748  59.8493195   6.7763108  25.9907317
  59.6517038   5.8418339  26.0534382  60.6510115   6.8864197  26.5019989
  72.3209286   4.1524297  12.5578642  71.7453480   3.4978595  12.1622896
  71.7742872   4.5882106  13.2117093  71.9450760  20.6815028  61.5859175
  71.5251350  20.6272483  60.7274675  71.2246990  20.8430576  62.1951723
  45.8002281   3.3542025  36.7129540  44.8688602   3.1340897  36.7314529
  45.9173059   3.9617464  37.4433064  84.2893982  26.3422108  30.8434415
  85.1958752  26.6456413  30.8930206  84.3526840  25.4556179  30.4882264
  35.4562783  94.1242123  56.7509937  35.5288720  94.7999477  57.4250412
  34.9821377  94.5489407  56.0361338  59.6673775 101.3611221  57.9603624
  59.4033337 101.9496441  58.6675787  58.8835239 101.2711334  57.4184132
  46.2448692 100.8090782  79.8448849  46.6689873 100.5167770  79.0380907
  46.9614410 101.1422157  80.3850460  33.5763621 101.0494804   8.4037703
  33.7164259 100.6582832   7.5414604  33.3713245 101.9663048   8.2204050
  60.0849771  21.1978722  16.5313244  60.7759285  21.7225385  16.1269188
  60.1064777  20.3668427  16.0568118  37.5492787 100.1220608  58.4850407
  37.0258665 100.4100895  59.2329121  38.0407906 100.9004211  58.2227135
  86.3908672  14.9224186  11.0661125  86.5248108  14.5197117  11.9240856
  86.5008831  14.2031932  10.4441440  35.1657796  54.0924931  46.9295216
  34.5146585  54.0792370  46.2280226  34.6523666  54.0212297  47.7342319
  83.7791252  36.1877203  26.8037796  83.1724453  35.4952669  27.0658588
  83.4538937  36.9714212  27.2468066  13.7016475  59.9237919   2.0765084
  13.2991540  60.7687998   1.8760154  13.3262742  59.3213224   1.4343603
  36.9582081  85.6142902  91.8360424  37.3723817  85.9063721  92.6480675
  37.3478770  86.1649036  91.1569118  30.4722166  34.3942642  10.3229773
  29.7471476  34.5463037   9.7168505  30.0504851  34.1154099  11.1357594
  94.2573547  98.5357189  64.1425800  94.4207668  99.0716648  63.3665085
  94.5319557  97.6549339  63.8875532 109.3604851  26.4520717  41.3790703
 108.9041710  25.6106472  41.3829470 108.7085152  27.0766473  41.0611629
 102.9015541  74.3534327  19.0137529 103.3140945  73.9211082  18.2659936
 103.6275387  74.7638702  19.4835699  41.2120533  23.4653783  40.4503298
  40.8632278  23.8317394  39.6377230  42.0090294  23.0071235  40.1837444
  10.5178046  38.5761404  45.5843973  10.0121701  39.1811824  45.0417280
  10.8606851  37.9300141  44.9669933  82.0366001  26.8089867  23.5752940
  81.6301632  26.6021991  24.4168854  81.9855499  27.7627635  23.5125780
   1.2725267  55.5091763  23.8999939   0.5428184  56.1285067  23.8863993
   2.0175323  56.0236025  24.2107415   1.0570841  62.8162050  63.1628323
   0.8735762  62.7946806  62.2236347   2.0124662  62.8041029  63.2205439
  23.4399080  21.0835743   7.7354783  22.9282069  20.2912116   7.5725198
  23.9003229  21.2449503   6.9119447  96.5457439  25.0945759  40.6616402
  95.6409550  25.1172328  40.3500748  97.0650864  25.3803015  39.9100590
  29.2735791  79.6143389  91.9458961  29.8913646  80.3387165  92.0451069
  28.4123707  80.0171280  92.0568657 102.6706886  50.0475407  11.4258981
 102.8374767  50.6832218  12.1218300 102.5130272  50.5810356  10.6469488
 108.4624863  55.2133989  54.4825077 108.1117725  54.8693609  55.3040123
 107.9025364  54.8337030  53.8053703  92.9481983  15.9652972  56.0670662
  92.2412968  15.8405459  55.4338503  93.6166859  15.3311634  55.8077765
  11.1832988  51.3511610  42.0622540  11.8214917  51.7086935  42.6796007
  11.4670992  50.4480553  41.9205379   1.5125632  30.2389359  29.7762680
   1.1215913  30.6210876  28.9905620   0.8496699  30.3589177  30.4562736
  16.7799461  54.5878601  70.3820086  17.1972489  53.8637400  69.9153852
  16.5495324  55.2139854  69.6956348   7.9421377  58.5991859  14.1927910
   7.1823651  58.8145733  14.7337019   8.5725856  59.2954206  14.3772483
  29.2499304  21.7820811  23.5566401  28.9118195  20.9787822  23.1608844
  30.1893306  21.6250682  23.6520743  86.2232685  61.2607956  36.0615087
  86.9460392  61.8311739  36.3232446  85.9722805  61.5754223  35.1930332
  79.8926210  88.1361389  90.0112724  80.5306911  88.8452053  90.0908661
  79.4079304  88.3387947  89.2111206  10.2465081  55.8018303  10.6435406
   9.4566870  56.2912273  10.4135251  10.7916141  55.8438253   9.8578393
  12.8151774  66.5467167  31.0607314  13.2471490  66.5808010  30.2072287
  12.3654366  67.3883820  31.1353326   7.2569740  45.1018763  24.1422009
   7.0758420  44.2881012  24.6125126   7.5195366  45.7195759  24.8246551
  98.1495571  18.1174123   6.6882634  98.0651855  17.4954534   5.9655744
  99.0554905  18.4222567   6.6373789  36.0884714  18.0394626  10.5551064
  35.1782751  18.3329809  10.5953741  36.0488534  17.1066070  10.7659197
  26.3573766  27.4718785  17.6433456  26.6369891  27.6776695  16.7513251
  25.4010844  27.4825215  17.6030529 100.6715775  23.9988613  35.8192444
 101.1580944  23.2118034  36.0643530 101.0559845  24.2679405  34.9849391
  12.5308418  59.0907669  12.3534656  12.1455860  58.4414959  12.9419017
  12.6263881  58.6311579  11.5192831 105.4155540  46.2647629  28.5217619
 104.8558426  46.1639547  29.2916870 105.9887695  45.4983997  28.5403562
 103.6852264  35.1211023   0.8844783 102.9445267  35.2188230   1.4828521
 104.4511986  35.0765777   1.4567767 108.6690140  41.2858772   4.3363890
 107.8515911  40.7905865   4.2840832 109.3556309  40.6207991   4.2868462
 104.6246624  50.2203703  15.2855313 105.4809952  50.2212048  14.8578393
 104.3738174  51.1434317  15.3211355   2.2425653  19.3139267  18.6881638
   1.5172200  19.9057865  18.4886456   1.8927021  18.4397542  18.5159707
  25.3174877  86.9446850  59.4623756  26.2154436  87.0695496  59.7694921
  25.4036069  86.8108273  58.5185051 113.1676388  30.7500505  31.3076901
 112.7497959  30.5772209  32.1513534 112.8943634  31.6394162  31.0827899
  31.8936515  41.6057968  38.5112882  31.3961053  42.2371435  39.0309834
  31.8912864  40.8068514  39.0384650 107.8183174  44.7372627  33.0886602
 108.2864380  45.2888060  32.4618483 107.0583725  44.4154835  32.6037169
  36.9639754  89.4631767  86.4187908  37.6856136  89.1556644  86.9673347
  37.3298335  89.4901657  85.5346775   6.9375145  31.7396450  27.6240706
   6.0749483  31.7677927  27.2100425   7.1741736  30.8121657  27.6217079
   8.2651567  31.7062116  30.8811665   8.2979912  31.1139178  30.1299429
   7.4062991  32.1242523  30.8192134  33.8897014  85.3308868  62.7658939
  32.9666519  85.4947090  62.9592228  34.3065476  85.2661419  63.6251259
  73.6257696  18.3303094  85.7818413  73.7800837  17.4934864  85.3434944
  74.3511486  18.8866735  85.4980850  84.1870403  72.3497486  46.7987251
  84.6336079  72.3346615  47.6452351  84.8380089  72.7002001  46.1907291
  76.7496681  68.7306118  27.7507257  77.7033520  68.6811733  27.8161073
  76.5882874  69.1158962  26.8894792  32.9373932  23.5904479  34.3622422
  32.6564908  22.7323294  34.6799755  32.5934815  23.6399484  33.4703302
  67.2920942  96.6633797  84.0395355  66.5412664  97.2248173  84.2326069
  68.0163193  97.2727203  83.8965797  61.8719244  91.0456085  89.8430634
  60.9347248  91.2110806  89.7405243  62.2866774  91.8844795  89.6418095
  27.7790284  44.8838186  26.3011193  28.4435010  45.5721807  26.2716818
  28.0312681  44.3391657  27.0467448   5.4040569  69.4832087   4.6785402
   6.2427652  69.8783541   4.9165708   5.1912212  69.8671532   3.8279408
   6.6459572  41.1995029   8.8355184   5.9623176  41.2373877   8.1666136
   6.2667757  41.6482544   9.5912111  15.5786490  53.5178328  33.1972957
  15.9157109  53.7626696  32.3355079  15.7614386  54.2772484  33.7505674
  98.3056641  43.1635284  38.9397192  97.9814339  42.3434353  39.3119478
  99.0442848  42.9016018  38.3901095 106.3125324  33.6532378  29.8048186
 106.2243176  33.2856297  28.9254379 106.2141037  32.9017973  30.3895259
 106.0856533  34.3850398  45.2571392 106.6877365  34.5172811  45.9894276
 105.2766228  34.0762615  45.6650019 106.4818192  35.0718999  10.8765435
 106.8019104  35.3028727  11.7485642 106.8850994  34.2240405  10.6901753
 107.3612881  69.1585684   1.2809521 108.2983875  69.2115688   1.0931394
 106.9435787  69.1666126   0.4197399   4.5866123  55.0084543  14.5512557
   5.3131461  55.6295538  14.5000899   4.8144689  54.4329453  15.2813935
   5.1911491  42.2659636  33.0435038   5.7865238  42.9710293  33.2977486
   5.4030889  41.5471172  33.6389637  95.0189400  26.2651610  32.2405028
  95.8340740  26.7312551  32.0546412  95.2733231  25.5707169  32.8481746
  10.4393411  41.5327120  41.9151974  10.1646423  41.0894632  41.1125135
  11.2751532  41.1241341  42.1403980  38.0788851  32.8313875  25.1593566
  37.3963976  32.2754216  25.5353141  38.4307027  33.3165741  25.9057140
  24.6393752  39.4282603  24.1323566  23.7430382  39.1843104  23.9014912
  25.1747656  39.0717125  23.4235120 110.2809525  86.7443848  20.3784704
 110.9680939  86.0899162  20.2530074 110.0042915  86.6299248  21.2876391
  17.9077160  35.1959109  45.0259686  18.4213507  35.4337811  45.7978678
  18.5337806  34.7625327  44.4459200  19.5077944  79.3753481  31.1806846
  20.0232530  80.1105499  30.8490133  19.9398446  79.1296434  31.9987273
 113.2810838  76.2903404   8.1331682 113.9842018  75.7777643   8.5320705
 112.7369817  76.5654945   8.8710541  74.2513371  99.5413780  48.6226702
  74.5387316  99.6268272  49.5316982  73.4608221  99.0038013  48.6709213
   1.4232555  46.7482853  44.6884966   1.8532412  46.4002466  45.4696560
   2.1268374  46.8316507  44.0448713  17.0804894  42.4134445  47.3866940
  17.8659940  42.0873547  47.8258753  16.8866801  41.7533207  46.7211819
 101.7474270  46.6456747  11.6409004 102.4969769  47.1735191  11.3656056
 102.1144581  45.7777262  11.8088126   3.6619106  69.8270702  42.5326681
   4.2349109  70.3711557  43.0729198   3.4569407  69.0728521  43.0852699
   7.2032076  73.1298733  46.7607546   7.5372225  72.2910738  47.0786810
   7.6267350  73.2496738  45.9107542  25.5597830  23.9650631  41.3373947
  24.8848462  24.5635486  41.0172224  26.0878992  24.4963455  41.9332647
  89.8530579  16.3102043  14.2989480  89.3219376  16.5527165  15.0574589
  89.2756462  16.4485765  13.5481548  40.1095963 104.2817020  67.5933075
  39.3532109 103.7186241  67.7577972  39.9453497 105.0635242  68.1205750
  85.7636070  62.8262472  76.9372034  86.4173508  63.4098625  76.5521860
  85.4119968  62.3367119  76.1935902 110.1070023  70.0858068  51.5565586
 110.6069660  70.8354473  51.2335920 109.3711376  70.4745007  52.0294857
  14.9295473  67.8263283  58.7570858  15.0773966  68.6236143  58.2484531
  14.3595266  67.2918129  58.2042742  32.2070765  87.0169163  34.7331834
  31.4006090  87.3260117  35.1458669  32.8434873  87.7120113  34.9007177
 106.6097641  62.6369524  26.1179614 106.2797832  63.5036802  26.3548708
 106.9110203  62.2610474  26.9451070  65.2211761   7.1529907  75.6917000
  65.3625631   7.6117903  74.8636055  65.5528688   6.2688202  75.5353165
  93.6210442   1.4828062  68.6432552  93.9709282   0.6043258  68.4946489
  92.7573490   1.4695524  68.2308435   5.1547378  66.8607855   5.1394647
   6.0790569  66.6983271   4.9511185   5.0459981  67.8029823   5.0103641
  82.1631336   5.4544026  44.9640846  82.8002834   5.5840218  44.2616129
  82.4073505   4.6165997  45.3573704  12.9445243  67.3785067  23.7084389
  13.6638820  67.1934509  23.1046939  12.2995341  66.6942835  23.5293937
  96.1251068  12.4426568  89.3542767  96.0891628  13.0300319  90.1092148
  95.3838158  11.8495989  89.4767284  16.1145377  52.1286154  35.6693196
  15.7740510  52.4491787  34.8341322  15.3335989  51.9321680  36.1867905
 111.3150311  51.6692162   9.7625440 111.3126850  52.4309301  10.3422189
 112.2407341  51.4472151   9.6624994   9.8132557  73.7551165  23.0817580
   9.6226287  73.9886713  22.1732736  10.3237188  72.9477882  23.0194521
   4.2867965  92.4503136  43.5884857   5.1709187  92.1682453  43.8229990
   3.7630817  91.6498089  43.6224651  27.4133715   0.2696964   5.9730422
  27.3316035  -0.6365421   5.6759083  28.3560500   0.4356930   5.9789073
 100.7076263  61.7434549  22.1236420 100.8456898  62.6680136  21.9178176
 101.4106560  61.5268469  22.7360725   1.1645228  51.2539339  50.6452894
   0.5930305  52.0155716  50.7429361   0.5709758  50.5036116  50.6760883
 107.1650887  56.7286539  46.0241222 106.2391853  56.5059185  46.1206055
 107.4399567  56.2711382  45.2295399  41.0265589  74.0872097  20.0108814
  40.5455256  73.9644289  19.1924882  40.3880119  74.4772863  20.6078172
  38.3169985  66.4685535  45.8847189  38.1863809  65.5802011  45.5530548
  38.4093642  66.3596773  46.8312073 105.4137802  89.4590855  29.5804214
 105.8456898  89.2114925  30.3979635 106.1317635  89.6854019  28.9892220
 109.9628353  84.5959091  17.7494872 109.5296955  85.4476357  17.8058648
 110.3488541  84.5810223  16.8737006 104.8970699  41.7340612  83.5405254
 105.7396221  41.2816095  83.5000706 104.9651432  42.2986937  84.3104458
   0.8984622  68.3058739  29.8734450   1.4380477  67.7600622  30.4454327
   1.0964838  67.9956675  28.9898205 108.8617611  20.3270483  31.1596346
 108.7295055  21.2142420  31.4937401 108.0794334  19.8486507  31.4340949
 101.9846725  53.6803198  30.5009675 102.5297165  53.6691713  29.7141838
 101.1253166  53.9682055  30.1929569   1.6607258 106.6724586  43.1193686
   1.2734915 107.3634529  43.6567831   2.5986826 106.8633938  43.1231213
 109.3732262  67.9972553  24.4959545 109.5229435  68.8661146  24.1232634
 110.1233959  67.8513479  25.0723004  35.0033593  26.9923067  53.2815266
  34.6641517  26.9782186  54.1764975  35.6434965  26.2810779  53.2567883
   5.0030345  73.9630127  11.2789834   4.1186807  74.2441893  11.0442698
   5.2240276  73.2982254  10.6267130  51.5892076  89.9354172  12.9374719
  50.8979893  90.2075195  12.3338103  51.2403345  89.1526890  13.3639121
 107.7523708  41.5246868  16.0034239 107.5324631  42.2105932  15.3730214
 107.8103733  40.7264566  15.4783559   5.4079854  45.2407360  52.4111509
   4.5483112  44.9929380  52.0708752   5.8667749  44.4092846  52.5312996
  32.6133895  63.5707283  33.4304810  32.3054218  64.3771315  33.8441277
  32.3540807  62.8765821  34.0364122  42.4335861  70.2227879  33.6012197
  42.1775103  70.2886248  34.5211792  42.5622320  69.2856264  33.4548903
  96.7733669  81.8063641   5.1490229  96.3967800  82.6456451   4.8844171
  97.4492073  82.0373631   5.7862890  41.9888735  99.4717216  69.8955202
  41.8305922 100.1441383  70.5581188  41.4272308  98.7417412  70.1561356
  19.5084846  81.9065666  39.3092489  18.6387169  81.5248680  39.1907334
  19.8485970  82.0081997  38.4203029  74.8958683  60.9417534  45.1340866
  74.4973040  61.7721844  44.8737621  75.6500196  60.8453274  44.5525503
   5.5537909  64.4830942  41.5463734   6.2045968  64.8426676  42.1491957
   5.8034199  63.5646629  41.4443874  32.6716018  58.9652443  83.7975883
  31.8596768  58.5867262  84.1348362  32.4682641  59.2005157  82.8923035
   5.9650093  80.4164219  39.4890904   6.6292733  80.9723282  39.0817237
   5.7219934  79.7928858  38.8047075  29.7752380  40.0419331  15.4586673
  28.8403106  40.2392864  15.5151868  29.8612976  39.1746187  15.8543885
  43.6018276  84.3821907   4.5524707  44.0739298  84.7662544   5.2912819
  43.7089062  85.0167370   3.8438696  26.0631990 105.7784557   9.3733978
  26.8445325 105.9910488   9.8838472  25.3738236 105.6633377  10.0274169
   7.8580552  44.7560787  54.6048164   8.0800587  45.2532864  53.8175821
   8.5009766  45.0380993  55.2554655   2.7211091  74.1888762  53.2882023
   2.4507569  75.0224686  52.9031515   2.6895073  74.3399572  54.2328739
   8.2587522  78.3221149  44.1705942   8.4349787  77.9857492  45.0492525
   8.5217613  77.6120186  43.5850859 105.7326889   9.0687656  10.1387084
 106.0405254   9.5364094  10.9150958 106.0867310   9.5676792   9.4025242
  28.6474705  59.6066761  46.0981512  29.2653060  58.8827133  45.9962177
  29.0231419  60.1459742  46.7940378  21.9399285  90.3292561  53.9612675
  22.8708696  90.1855850  54.1313839  21.7061329  91.0709286  54.5193863
   9.6296978  61.1865854   8.9375669   9.6440196  60.5734158   9.6724445
   8.7006903  61.3676929   8.7948138 110.2635002  72.0225239  58.6359310
 110.7009029  71.6775990  59.4143486 110.3091049  71.3089371  57.9995823
   5.6597948  48.5104799  37.6221943   5.9622478  49.0101099  36.8638277
   5.0440186  49.0951014  38.0640841  18.6631846  12.1426165  17.8180659
  19.1301203  12.9049981  18.1600833  18.9844120  11.4095926  18.3431590
 113.5690403  31.7793250  14.8233008 113.0157375  32.5179052  14.5691550
 113.2777977  31.0585594  14.2648149 112.3837948  55.5605459  49.1645002
 112.9818821  54.8864651  48.8417816 111.6310692  55.5150461  48.5749483
  11.5239406  73.7703228  29.5911503  12.1388924  74.4130754  29.2376852
  10.6916904  73.9756536  29.1652036  11.9306588  57.4481821  25.3870702
  11.2343192  56.9537783  25.8193994  11.9024312  58.3117867  25.7989192
  15.8112311 100.9538078  82.5678062  16.4815557 101.4327335  82.0804405
  16.0115910 100.0316238  82.4075794 113.4822845  48.8371229  16.0274565
 114.2228031  49.1815042  15.5281937 112.7384567  49.3736792  15.7534897
  11.2518215  66.4959955  66.6695881  11.6357756  65.9271097  67.3368073
  11.6520762  67.3514795  66.8250608 107.5834560  74.1895437  40.9438038
 108.2054615  74.6746635  41.4860201 107.8546047  73.2754040  41.0278082
  18.9509606  41.0593700  26.0011435  18.1829417  40.5228662  25.8048296
  18.5907221  41.8749142  26.3494992  42.0417023  14.6621025  83.3034706
  41.4176321  13.9692640  83.0872726  41.8990374  15.3306031  82.6334095
  59.3474817   0.2521561  84.1638184  59.3121481  -0.3279597  83.4032536
  60.0151443   0.9004317  83.9397621  92.0852566  69.7963667  27.4286914
  92.8613091  70.1519966  27.8617072  92.2308731  69.9669790  26.4981437
 102.9333115   4.7810832  86.7889977 102.5625896   4.7217247  85.9085083
 103.2235336   3.8907355  86.9872093  26.2210655   1.6852346  61.1420965
  25.5526090   2.3267226  60.9014893  25.7985258   0.8369868  61.0073090
  21.3724542  13.6410964  32.7979445  21.0959339  12.8102279  33.1845021
  21.7647982  14.1246617  33.5248995  97.6546192  47.2010088   4.8985419
  97.6505852  47.0967531   5.8500391  96.9394588  47.8121042   4.7215185
  93.7609100  11.3926506  90.0954533  93.0518341  11.3280761  89.4557095
  93.3567333  11.8020356  90.8604813  31.8198967  76.1422491  50.6658125
  31.6399550  75.5293369  49.9529362  32.6733875  76.5176010  50.4492569
  12.7086949  76.1397839  42.2153425  12.3561049  75.4982519  42.8320694
  12.4650657  75.8023787  41.3533497  66.4884233  84.8910904  85.7352066
  67.3654318  85.2375507  85.5707264  66.5307283  83.9817715  85.4392529
   3.4243491  84.4974899   9.6614319   2.9668534  85.2938366   9.9311900
   3.8556752  84.7354126   8.8407105 105.8006191  15.7023776  47.6538277
 105.4454327  14.8562503  47.9261255 105.2793694  16.3463974  48.1331730
  93.5055542  44.7107983  43.9244080  94.4031048  44.9334049  44.1715336
  93.5519028  43.7935925  43.6545563  96.7468548  83.4320068  33.6038542
  96.9233704  82.6593113  34.1405249  96.9966793  83.1702900  32.7176714
 113.8068012  45.6991720  20.1915741 114.2015261  45.5754709  21.0547781
 113.0578538  46.2735987  20.3507757  54.4061899  83.5320663   4.9508688
  53.9060020  82.9488754   4.3799666  53.9742374  84.3817234   4.8629454
  30.4707122  35.9885406  57.0136929  31.3517714  36.0168195  56.6406345
  30.1936531  36.9042873  57.0433187  26.0300255  49.9872875  16.1816299
  25.9789395  50.9431028  16.1877251  26.5026259  49.7778273  15.3760207
   9.1438162  47.9851246  32.8363633   8.2687318  47.6082039  32.9279494
   9.7311401  47.2292948  32.8342676  29.7573066 104.2637825  19.9747384
  28.9163065 103.8379765  20.1409960  29.7705936 105.0099850  20.5741000
 110.0976849  72.8984499   9.0196437 110.1986313  73.7293434   8.5552597
 110.8115005  72.3520279   8.6908168   3.9172301  83.8639164  16.1542141
   4.4930369  83.3044720  15.6329727   4.2119774  84.7544861  15.9638083
   4.6820119  77.3196363  15.2586353   5.3091037  77.6025772  14.5931053
   3.9262646  77.8939486  15.1351786  99.9413395   5.5033374  71.4566135
  99.2331791   5.2442211  70.8670425 100.3028679   6.2971205  71.0623598
  31.3283634  66.7188740  37.6589227  32.1053624  67.2358084  37.4461198
  31.2923861  66.7232132  38.6154366  94.3295288  17.6299429  85.4488468
  93.4959888  17.2526610  85.1676178  94.8578167  17.6648748  84.6513939
  41.8800497  91.7742252  14.2909181  41.5241146  92.3874855  13.6479080
  41.2565422  91.0480118  14.2999887  11.5625465  82.3308372  47.1724319
  11.6343331  82.8309250  47.9854441  11.2720537  81.4621830  47.4504089
  46.5489817  41.9911718   4.7208318  45.6449938  42.0728636   5.0247455
  46.8493795  41.1580229   5.0839508   6.3836735  91.2022781  44.2002726
   7.0875895  91.7606258  44.5304012   6.8072116  90.3623104  44.0233612
 108.9949036  92.3402023  10.6932449 108.4329033  93.0234623  11.0586774
 108.6069012  92.1412563   9.8411292  57.9112387 106.2819195  79.8658419
  57.7920103 105.6812954  79.1301346  58.1515121 105.7166576  80.5999947
  17.2912240  46.4402676  52.4547672  16.8690825  45.6062889  52.2485876
  16.9545221  47.0483065  51.7966270  33.0544567  73.5221291  17.8632808
  32.5492001  73.5369444  17.0504284  32.9293203  74.3935728  18.2389915
  97.2601700  73.5567856  30.6538057  96.3858318  73.6132002  30.2683401
  97.1818638  72.8811216  31.3272882  23.3003354 105.2140141  12.2112131
  22.7078438 105.4122543  12.9363942  23.7264562 106.0484028  12.0151341
 112.1053791  34.2078304  14.3252277 112.1136093  35.0898218  13.9534020
 111.2783813  34.1577101  14.8046041  49.6993208  75.4946756  58.0030489
  49.6729565  75.7148266  57.0718813  50.3298473  74.7768831  58.0616999
  20.2177525  26.9356799  14.0109217  20.5611348  26.7883253  13.1296682
  19.3049526  27.1887183  13.8730884  39.4820333  42.1965885  64.7600126
  38.7184286  42.1226501  64.1875839  40.2093363  42.3828840  64.1662455
 111.5371513  62.7830744  26.2930012 112.4716759  62.7426577  26.4961314
 111.1047649  62.7453852  27.1461391   0.0406504  39.4413090  55.8609915
  -0.2175570  38.6361837  55.4122877   0.8354902  39.7234154  55.4083538
  11.1232221  25.2863097  35.1150703  11.2227213  24.9262047  35.9963536
  11.3840270  26.2033510  35.2001977  90.3420353  80.5428982  19.8181367
  91.2383842  80.2190399  19.7291493  89.8011494  79.8651934  19.4126904
 112.1430397  39.8288012  10.6019795 111.8338299  40.7344055  10.5794656
 111.3482380  39.3021655  10.5172360 101.2044430  45.0823307  17.9439890
 100.9642315  45.9872627  17.7449358 100.6991100  44.5581627  17.3226058
 110.1139927  16.1022258  80.7986164 109.6452808  15.5245209  80.1962757
 110.5967903  16.7011845  80.2290726 106.3150597  81.8428040  39.3432975
 105.6207943  81.2137222  39.5394588 105.9404087  82.4107933  38.6700535
   8.4557045  47.3390675  45.1982594   9.0929657  47.9681206  45.5365181
   8.5208100  47.4203157  44.2467356  25.4125047  73.0309916  23.4879875
  24.6872091  72.4391556  23.6877561  26.1479473  72.4507236  23.2914042
   1.6163135  74.4210863  49.7016907   1.0661468  74.6060944  48.9405584
   2.3380768  75.0460529  49.6330976  12.3126137  44.5364046  66.4808226
  12.4294651  43.5936737  66.3632011  12.9082680  44.9327612  65.8449507
  37.0077038  70.6263590  36.7300296  36.9367123  71.3318920  36.0870528
  36.3101220  70.8057499  37.3604536  24.9450159  67.0831537  20.6235886
  24.1983986  67.4341536  21.1089659  24.5523357  66.5428829  19.9379194
  52.3550510  19.1766119  87.9771233  51.9084454  19.3618774  87.1510124
  51.9247866  19.7460580  88.6149502   1.9512236  61.2556744  40.0185299
   2.5556445  61.9354057  39.7204137   1.7828652  60.7262325  39.2390561
  68.9997101 102.3214817  77.2829437  69.0075016 101.3857937  77.0812941
  69.8422718 102.6427269  76.9618034  31.1809826  72.5547171  32.2913671
  31.1927986  72.0664358  31.4681578  32.0937490  72.5604582  32.5795627
  78.2390881   8.4052241  90.6751728  78.8602781   9.0581566  90.9977150
  77.8207827   8.0620170  91.4647675  17.5914538  48.2912254  54.3988037
  17.7629113  48.8532448  53.6431789  17.3662889  47.4417973  54.0193224
  28.9042902  58.3402729  64.4340849  28.2294011  58.7810183  64.9503231
  28.4826183  57.5394630  64.1224241   5.9231013  61.9420671  24.3169045
   5.3416550  62.0788717  23.5689497   5.8021408  61.0213566  24.5490527
   4.7192386  85.5791664  19.0191305   5.6201833  85.2608204  19.0755498
   4.1849396  84.7850609  19.0068698  18.0681181  43.4239483  27.4914455
  18.5909677  44.1216612  27.0964050  17.1828067  43.7849522  27.5376463
  21.5053535  42.9874372  31.5438032  21.6552687  43.7953949  32.0346808
  22.0784926  42.3440504  31.9606972 105.8443642  78.6477661  35.9170604
 105.0512028  79.1085529  35.6435752 106.1379051  78.1885004  35.1302075
  28.9377284  34.1373992  37.7972770  28.3325601  33.4616613  37.4916959
  28.4314370  34.9486995  37.7561307  30.9144640  72.8899336  40.3058434
  30.6230021  73.8014698  40.3252745  30.1808238  72.4120903  39.9189711
   6.9737858  40.9845161  47.3108006   6.4617884  41.7685652  47.1124125
   7.7040905  41.3032198  47.8411913   6.4920193  47.1549749  13.3735096
   6.8494868  46.8656731  14.2130053   7.0455480  47.8933144  13.1191587
 102.2192097  55.4862690   3.5834384 102.4249840  55.1512909   4.4561809
 102.9155540  56.1164331   3.3984348   0.8713337  59.5996618  25.1940036
   0.2669546  58.8970327  24.9546933   0.4089136  60.0929403  25.8715558
   8.4978956  42.4848795   3.8252115   8.6718321  42.3205376   4.7520182
   9.2542064  42.9891539   3.5253233 111.2431335  50.3673887  53.1586266
 111.6123867  49.4844341  53.1750584 110.7194710  50.4229212  53.9579535
  16.2603235  67.7296495  40.5570555  15.8812797  67.1600056  39.8876834
  16.3250768  68.5859299  40.1341820  45.0870514  26.4915824  31.1018252
  45.2833223  25.6235814  31.4543676  44.7586536  26.3227701  30.2187109
   1.7767198  76.6593409  24.0491629   1.4681968  76.6695595  24.9552202
   1.7520544  75.7359743  23.7981439  54.0780401  49.1630793  40.9191990
  54.7411871  49.8488426  40.8404827  53.7096930  49.0839577  40.0392628
  30.1588964  44.4682407  37.9463315  29.8301220  45.0653553  38.6183381
  30.0660348  44.9548912  37.1273208 112.2211647  61.6300011  18.8585711
 112.2005463  62.5832033  18.9434969 111.3077450  61.3610220  18.9563119
  90.6770039  72.2278881  82.9170322  90.8924007  73.0894709  82.5599480
  89.8634338  71.9825745  82.4764061  97.5111866  22.8155446  16.0061049
  98.2881927  22.5037408  15.5421364  96.9070816  23.0785799  15.3117681
   9.2286438  43.5980844  56.9947004   8.8437414  43.1082582  56.2679625
   9.4697058  44.4423437  56.6134548  37.0532656  78.3042192  39.2305446
  36.8360162  77.3746109  39.1608310  37.3901701  78.5369873  38.3653593
  18.7788177  29.3689632  45.5142736  19.1826642  29.9613857  46.1484432
  18.2288229  29.9357891  44.9734926  46.8454933  66.6991329  63.9657354
  47.3329544  65.9025288  64.1755867  47.4099302  67.1710062  63.3533859
 109.3439865  41.7486858  36.6782069 109.2918396  40.7949686  36.7409110
 110.0380325  41.9914198  37.2910786  11.4083791  81.7550945  67.2051954
  11.0414803  81.7318249  68.0889797  11.9964874  81.0006905  67.1700716
  32.6716852  33.1317139   9.1314822  33.4168267  33.7020326   9.3205053
  31.9390559  33.5316300   9.6000493  29.7190738  78.2393456  41.8336010
  30.0855803  78.5267591  42.6698446  30.4255056  78.3769608  41.2025356
 110.5207729  51.5488768  49.5592880 109.9196434  50.8595085  49.8415041
 109.9502563  52.2694206  49.2917871  24.5768452  52.9651976  35.9375429
  25.4221678  53.0024910  36.3850594  24.2788553  53.8744831  35.9123611
  17.8341973  95.7761192  37.4636078  17.8470790  96.2395191  36.6261578
  18.7540948  95.7250023  37.7232361  18.9285171  65.4337740  28.6437440
  18.3214617  65.0400782  28.0170679  18.3777297  65.9924412  29.1921544
  12.7015233  93.4073734  80.3465843  11.9024909  93.7709999  80.7281113
  13.2130015  94.1735649  80.0866413  88.4611416  64.0352678  28.6799335
  87.8474331  63.4700155  29.1490626  88.6232090  64.7630644  29.2801666
  43.6017656  88.1802654  62.3090506  44.5025301  88.3924961  62.0644760
  43.0704546  88.8380146  61.8603706  13.3967447  41.9375229  28.8806963
  13.9724374  41.6640186  29.5948434  12.6884544  41.2936735  28.8840556
  96.1352730  15.8711362  51.9912481  96.4206505  15.8813393  51.0776377
  95.3236008  15.3638232  51.9829845   1.0607208  62.3927402   7.7511567
   0.2260634  62.1006250   8.1175572   1.2172523  61.8041134   7.0127445
  12.5286770  85.4828739  33.1215024  13.0508459  86.1404991  33.5809636
  12.5512183  85.7569313  32.2046518   9.4121897  31.9564843  73.8369608
  10.1256442  31.4355373  73.4684086   8.6517870  31.7356658  73.2991314
  13.9103043  86.7233658  34.9268174  14.6364164  87.3465061  34.9530482
  13.8327527  86.4079189  35.8272147   7.5534338  55.7596731  15.7979560
   8.3317637  56.1864090  16.1561894   7.8959823  55.1310301  15.1625812
  14.0634632  81.4884853   7.7277249  13.6975574  81.0459232   6.9619036
  13.3028102  81.8545532   8.1789780  66.2180376  30.9770751  85.6916809
  66.9907856  31.3728905  86.0946941  65.5382299  31.0421228  86.3624001
   5.6933653  59.2970657  25.0910020   4.9675626  59.3273544  25.7143188
   5.4037446  58.6835384  24.4157720  16.2149119  47.7977848  41.4057159
  16.5513968  48.0547619  42.2641850  15.6870675  48.5442257  41.1221075
  15.3474617  79.4100714  11.2719297  15.7720160  80.2621365  11.1721158
  16.0475886  78.8263845  11.5641034  36.0392976  52.3379135  50.5414915
  36.1486149  51.6103649  49.9291563  36.5642953  52.0911026  51.3028669
 113.2178211  80.9412193  42.4082375 112.2952843  80.6906605  42.4570513
 113.2034302  81.8518066  42.1135473  21.0854053  68.3800077  55.6360865
  20.2887201  68.8963842  55.5140924  21.6093302  68.5599470  54.8554707
  48.4664726 106.7885494  82.7988911  49.2532158 106.9871998  83.3066463
  48.7974501 106.4503479  81.9668484   9.9198085  28.5009170  14.6137345
  10.1390398  28.8707852  13.7585354  10.7010579  28.0108833  14.8701513
 111.2749290  71.8851423  42.9864073 110.6798458  71.1992550  43.2891750
 112.0927143  71.4257050  42.7957010  16.5682817  70.0324154  26.6581035
  16.6281331  69.4013119  25.9409142  17.3934531  69.9341059  27.1331406
   7.9833478  53.6757326  13.8196886   7.3282927  53.6693811  13.1217670
   7.7532566  52.9277945  14.3709445  30.3878403 100.8553791  21.5732527
  30.9199429 101.5114594  22.0234251  29.4861984 101.1514473  21.6982317
  15.7109499  41.3194847  30.6483984  16.5988481  41.4608383  30.3199363
  15.5428553  40.3902149  30.4920864  14.0592003  40.0226402  38.8503814
  14.4389880  39.7068596  38.0304575  13.5156143  39.2971396  39.1576195
 103.7301159  43.1914806  22.0968390 103.6146927  42.6386976  21.3239574
 102.9506302  43.0270243  22.6274943  94.6755600  77.1926737  30.2193213
  94.1608906  76.7695284  29.5320797  94.8162460  76.5055037  30.8706570
 110.0556183  52.8875494  27.6569200 109.2839718  52.5132990  27.2317982
 109.7359753  53.6894512  28.0704594 103.0655289  30.1785421  15.5806518
 102.9621410  31.1234498  15.6933200 102.3056412  29.8000455  16.0228515
  22.3603034  41.5059805  42.4559212  21.9138622  42.3121786  42.7147007
  22.0320940  40.8443928  43.0648661  71.2081146  18.0403137  83.0777645
  71.1755133  18.9528215  83.3649826  70.5135679  17.9704094  82.4228191
  28.0628562 101.9587231  22.5386572  27.2440577 102.2943592  22.1737623
  28.4817457 102.7245426  22.9314303  28.2582545  77.4273539  84.2360020
  27.3583007  77.1072817  84.1738129  28.2135487  78.1470251  84.8655319
  20.0690508  76.9553518  26.4014435  20.9912324  76.7163181  26.3082957
  20.0575852  77.5915956  27.1164942  23.1269073  58.4328556  17.9346204
  23.4617996  58.2405138  17.0587873  22.4050021  59.0436459  17.7862120
  10.0046825  52.6461935  49.5306301  10.0639057  51.6910934  49.5531321
   9.3924361  52.8314924  48.8185549 107.0618153  48.2324076  30.9739685
 107.4591541  48.9349413  30.4593849 106.3396168  47.9167128  30.4308367
  51.3239384  81.7404366  81.8833923  51.1215305  82.5378036  82.3727512
  51.7923546  81.1878395  82.5090599  42.3845673  43.0620289  13.6479104
  42.7318811  43.7409687  13.0694211  41.5112495  42.8768587  13.3025706
   5.0278795  93.4845448  35.3861141   5.0707448  93.3639812  36.3347244
   4.3416911  94.1396427  35.2587008  91.1070824  20.8584952  18.1469691
  90.4747391  21.5407920  17.9214847  90.6031036  20.2236509  18.6560929
   9.0861070  83.5165119  15.2220261   9.5915771  84.1908455  15.6759083
   8.8048077  82.9202747  15.9160078  30.7382083  67.2986650  29.0949297
  30.3003311  66.4534283  29.1952872  31.6576529  67.1166420  29.2891479
  68.5422659  81.4406967  70.7856750  68.1329060  82.0212078  71.4272881
  69.0912199  82.0186424  70.2556992 106.5493679  32.6295686  42.9309607
 107.1517849  32.0289421  43.3697987 106.4128494  33.3357763  43.5625172
   4.0946847  87.5269222  11.1105990   4.2051697  86.8266201  11.7537212
   3.1763971  87.7844238  11.1922741  32.8517151  60.3375578   6.1295116
  32.3950362  59.6502352   5.6444746  33.3256936  60.8294010   5.4589403
  90.2242756  18.7954831  91.1549377  90.7526207  19.1508234  90.4402256
  89.3994331  18.5426724  90.7402706  56.3402700  85.3364658  29.5262146
  56.1010456  85.7197380  28.6823487  56.5209961  86.0895729  30.0887084
  19.3101418  56.6291046   3.8813016  19.9183142  56.2490368   3.2473388
  19.1124308  57.4981833   3.5322443  64.4088316  74.2598915  76.7169333
  64.5239496  73.5882568  77.3891640  65.2763987  74.6523857  76.6194630
  22.2114420  93.5879993  28.4325576  21.9100404  92.7465820  28.0898929
  21.4480186  93.9510822  28.8815355 109.7244453  67.1788073  39.1973901
 108.8974476  66.6969442  39.1863275 110.3371620  66.6138268  38.7266374
 100.3330040  79.1121006  42.1428156 100.6262112  78.8706589  43.0214310
 101.0516930  78.8465548  41.5690613  62.7667856  72.8510475  22.7815652
  62.2752762  72.7954531  23.6010528  62.0947456  72.8757381  22.1004033
  25.2145481  45.0522232  25.5967116  25.1583004  45.8943415  25.1451540
  26.1534524  44.9009895  25.7054210  18.7696183  84.2641449  35.9874129
  18.6431515  83.3494091  35.7354379  19.3839097  84.6084404  35.3390765
  30.3359294  67.4912643   6.9054884  31.2712169  67.5284338   7.1057069
  30.2760601  66.9088554   6.1482239  11.7343345  24.4088368  92.5628715
  11.0133949  23.9497523  92.1319194  11.5869871  24.2624716  93.4972694
  21.5280294  88.6604977  36.1789894  20.8347321  88.1217289  35.7978058
  21.0779834  89.2129898  36.8180847  76.5716553  46.7421293  20.9119129
  76.8683815  47.1004725  21.7484379  77.3506355  46.7554998  20.3558111
  12.0429790  82.8598309  14.9368334  11.1869144  83.0211639  15.3335178
  12.5408936  82.4071121  15.6175387  22.2200647 107.6382321  61.4735794
  22.5053897 106.7372458  61.6253805  21.2940088 107.5607589  61.2441063
   4.2377496  88.7402630   8.4633332   4.1729257  87.8092766   8.6761522
   4.8704818  89.0863419   9.0927106  83.7683582  36.6248488  87.9083729
  83.8566875  35.7666373  87.4937630  82.9849434  36.5482450  88.4530067
  72.5467730  94.2897987  68.1208849  71.9107771  94.3439007  67.4075747
  72.9308081  93.4173584  68.0337000  36.5605116  53.2513475  55.0397921
  35.9226203  53.6525345  55.6300259  36.7768931  53.9433527  54.4148588
  80.3739071  35.5007243  91.2635994  80.5554390  35.9141612  90.4195881
  80.2993393  36.2315845  91.8772030 103.5305309  86.8732548  75.1396179
 102.9748249  86.9896793  74.3689871 104.4118309  86.7581940  74.7842216
  33.3178878  66.4816427  20.7539463  33.9886355  66.2614107  21.4003420
  32.6112342  65.8576965  20.9199619 112.6499176  86.1654282   2.0246080
 113.2536221  85.8140469   1.3701567 111.7864132  86.0909367   1.6183652
  35.8371353  55.0581169  34.4949126  36.3351583  54.8829222  35.2933550
  35.0154567  54.5822620  34.6158791 111.8635273  78.9893675  12.0013690
 111.2047958  79.1020107  11.3160849 112.6971912  79.1580009  11.5622759
 105.0935173  73.6001396   5.6424093 104.6030331  74.4143295   5.5295187
 105.1237583  73.4681606   6.5899849   2.8312194  39.0384316  89.1326618
   1.9920325  39.0475941  89.5930004   2.6466963  38.5903740  88.3071709
  10.7558823  55.0968027   0.5133260  11.5990889  55.0556803   0.9644832
  10.9739935  54.9883890  -0.4123657   4.2640141  68.0516958  64.0450335
   3.6103481  67.3556852  63.9777803   5.0631416  67.6037693  64.3225002
   0.9279102  38.7514567  48.1454086   0.2663317  39.3852425  47.8681707
   0.9056836  38.7848663  49.1017675   1.0048670  90.5482960  55.9683990
   1.4064571  90.4908371  56.8353796   1.7423806  90.6693935  55.3703690
  29.9043775  87.9609108  28.2452631  30.3111053  88.8252735  28.3060384
  29.6128297  87.7701759  29.1368055  19.0499461  66.1348534  16.9534779
  18.1077492  66.2518406  17.0751750  19.1519344  65.9720135  16.0157609
  76.7061424  48.6094952  79.9305725  76.4758158  48.4135103  80.8387375
  77.6589727  48.7004280  79.9394083  21.4366698  80.6520081  16.6223228
  22.1601844  80.5148888  16.0107994  20.6503439  80.4702663  16.1076474
  94.4721603  52.4395561  11.6083384  95.1308250  53.1273651  11.7048526
  94.6219730  52.0857954  10.7316172  33.1247997  95.5370617  21.1156225
  32.3911381  95.2009869  20.6008220  32.8191638  95.4982281  22.0218849
  86.9861794  40.4131079  88.8354301  87.5484657  41.0246563  89.3109035
  86.1610126  40.4197788  89.3205070  18.5526955  69.4165373  22.8247118
  18.7137997  70.2871323  23.1885004  19.3321037  68.9118385  23.0571604
  37.9516673  72.3792171  47.4065304  38.3621764  73.1100321  47.8687239
  37.7501941  72.7278757  46.5381527  12.9162097  68.4188366  64.1223097
  13.2885218  68.4428740  63.2408142  13.4781742  67.8112221  64.6031761
  40.5305338   4.5491344  34.9183178  40.7377291   5.4779017  34.8149037
  41.2101126   4.0951994  34.4199657   9.1380930  58.9585447  46.5549803
   8.7108731  59.6681213  47.0347834   9.4716102  59.3739796  45.7597351
  32.0735192  59.3065023  26.4869308  32.7648807  58.7971926  26.9098473
  32.1792531  60.1910162  26.8371916  42.1123552  78.3995295   4.0389732
  42.5606632  79.1944456   3.7502599  41.3231373  78.7158966   4.4786108
   8.3135241  78.8842964  38.4769797   7.9510796  78.6221075  37.6307392
   8.1639385  79.8287868  38.5193348   2.9177359  49.1953135  41.3549185
   3.4387785  48.4277248  41.1192322   3.3510503  49.5497227  42.1313620
  33.4327292  57.7945948  41.1194086  34.2819738  58.0412674  41.4857006
  33.1242251  57.0869350  41.6853428  13.4313118  99.0119457  14.8338270
  12.7352691  98.8527107  14.1963315  13.2090986  99.8568153  15.2250421
  27.2110176  87.5298691  27.2248530  27.8819585  86.8519592  27.3055053
  27.6552486  88.2555485  26.7863584 110.4243660  75.5392408  40.0572681
 110.2177429  74.9683619  40.7972908 111.3453293  75.7685995  40.1815462
  26.0405254  59.5170736  44.8274231  26.8172026  59.7586966  45.3320265
  25.3637266  59.3658733  45.4872036  75.0466633   3.0411232  52.5345755
  75.1862717   3.9880776  52.5389242  74.5444870   2.8693974  53.3311701
  16.7551553  67.9331350  50.2986526  16.9304121  67.3547220  49.5563889
  16.2527454  67.3936987  50.9092522  13.5526645  98.4972095  37.0891309
  13.7112820  97.7781773  36.4775324  14.3431926  98.5323429  37.6277065
  17.3470509  80.2795506  29.0367365  18.1245863  80.8057022  29.2233825
  16.6728663  80.9203243  28.8106418  44.2769766  80.9834766  30.7407308
  43.9925861  81.0275555  31.6536427  44.8012877  81.7743397  30.6147528
  41.1115265  87.0794201   8.4868479  40.7547188  86.3472176   7.9840583
  40.4023266  87.7218437   8.5105658  42.3667002  57.9642296  23.3188534
  42.3630381  57.0534706  23.6133671  43.2240009  58.0800200  22.9091454
  79.9606323  43.4134388  78.7980556  79.2270422  43.9179754  79.1495132
  79.6407509  43.0770779  77.9609346 111.1195660  28.8227129  85.0279999
 110.2478981  29.2158151  84.9842834 111.6584969  29.4829845  85.4636860
  37.9089785  75.9606886  32.8848076  37.6375198  76.7835760  33.2914972
  38.6980987  76.1859226  32.3920727  12.7845752  78.2781410  11.8988121
  13.6621547  78.6430883  11.7852294  12.2317421  79.0371513  12.0845950
  99.8856068  15.2380502  37.1095753  99.3660831  15.9348965  36.7086649
  99.3801975  14.9747026  37.8786278   5.7388842  45.5016470  83.6727142
   6.5701175  45.9253216  83.8866901   5.0851399  45.9908724  84.1722298
  88.5175705  88.9064884  19.0600026  88.8141823  88.0191326  19.2621422
  89.1080093  89.2046070  18.3680987   4.6103254  27.0198393  79.2484188
   4.9808317  26.6447663  80.0473404   3.9536247  27.6432967  79.5587015
  11.0813651  72.7697702   0.3522882  10.3989825  73.4409829   0.3601751
  11.0820326  72.4394472  -0.5461112  83.0389404  88.2130718  28.8980508
  83.6869907  88.2836723  29.5989656  83.1297398  89.0284157  28.4048915
  29.7235227  23.5442996   9.6692210  29.3864441  23.0334520   8.9332563
  30.6616163  23.3544874   9.6828282  19.1659355  77.6489115  47.0194721
  19.4870377  76.8377829  47.4134159  18.3234274  77.8052139  47.4460649
   3.8768458  37.5917816  28.2747602   4.2435792  37.1048832  27.5367451
   3.6356968  36.9177938  28.9102292  82.1862411  31.8089890  75.4427862
  82.5221157  31.0711884  74.9337959  81.2750340  31.8976808  75.1633596
  29.9784160  57.5999069  34.4444394  30.8168769  57.1457911  34.3607926
  29.3626428  56.9182539  34.7135210  37.4683213  40.1056242  26.6246986
  36.9160652  40.8243275  26.3169408  38.0705810  40.5153370  27.2457075
  29.6764636  66.4906120  69.8458004  30.1252484  65.6466055  69.7960091
  30.3627419  67.1129608  70.0865030  30.6334782  38.9310884  33.9423704
  29.9984884  39.3445659  34.5272279  30.0994229  38.5025263  33.2735276
  12.1255231  62.8005409  30.4338789  12.5957239  63.2701874  29.7449875
  11.6866517  62.0825672  29.9776530  34.2037040 106.3862879  93.1795249
  33.9514094 106.5448362  92.2698867  35.1320010 106.6171152  93.2143202
  55.7265568  50.7202482  15.9848607  54.8815298  50.5670166  15.5621541
  55.8777332  51.6600704  15.8843195  31.0465050  51.4234686  28.0028200
  31.5912461  52.1178055  27.6321673  30.9832597  50.7707024  27.3055935
  12.0257127 101.9398689  28.3106947  11.7186034 101.6541672  29.1710973
  12.3529327 102.8276157  28.4558153  80.3295135  35.7641506  86.1078072
  79.9035645  35.5852103  85.2694893  81.1977863  36.0898256  85.8705902
  50.8807564   3.2805240  33.9896536  50.4835224   3.7078160  33.2307982
  51.8046999   3.1893027  33.7567520  33.5305500  92.9571342  14.9859273
  34.1263366  92.6611519  15.6741595  34.1026545  93.1667137  14.2476845
  91.8502331  44.3328810  77.1616364  92.2891521  45.0180483  77.6657438
  92.5420380  43.9542150  76.6191864  30.7143807  79.5999622   8.4110665
  31.5723562  79.2211962   8.6025000  30.6002688  79.4708776   7.4695003
  22.0229936  51.4152479  54.9782467  21.5667629  50.7111120  54.5175076
  22.9154587  51.3883114  54.6332693  24.2088056  91.6781235  16.2601089
  23.5782170  91.6113281  16.9771373  23.6721778  91.8339825  15.4829538
 107.7724838  24.2831349  80.9363079 108.1076336  23.6181092  81.5376759
 108.4191608  24.3163013  80.2313614  33.3580041  64.9236965  66.1663818
  34.0056515  64.2997026  65.8386421  32.6404071  64.3776512  66.4874983
  47.3816395  88.7172985  42.1958923  47.5962353  89.0670109  43.0606985
  46.4482689  88.9003086  42.0883989  32.9147458  49.9093390  35.4888010
  33.0571079  49.1895342  36.1034942  32.3263621  49.5461941  34.8268628
  84.1487980  79.2651463   5.3573000  83.5338402  79.7709799   5.8885175
  83.5927486  78.7094116   4.8112127  11.5671206  89.0596008  14.7083759
  12.0263386  88.6003971  14.0051794  11.0869026  89.7585201  14.2643869
  29.5187092  67.6333141  35.1421404  29.3723798  68.4309435  34.6336102
  29.2419410  67.8609896  36.0297179  28.6784458  57.4414539  16.7768466
  28.5746646  58.0588388  17.5009286  29.5301843  57.6580954  16.3975835
  24.3320704  67.7986193  24.6110868  23.6300015  67.8889513  25.2554274
  24.0905452  67.0258665  24.1004491   1.6399169  27.0478439  88.8184834
   0.9128698  27.4715328  88.3622837   2.2215211  27.7677751  89.0627480
  25.0740623  92.5982761  49.9718189  25.7229948  93.2363224  50.2685022
  25.3676367  91.7669964  50.3446674  22.8747869  70.1029587  70.1159000
  22.7873802  70.0981474  69.1627121  23.7875533  69.8618937  70.2739382
   4.7304216  51.9245581  92.9504028   5.1553216  51.2839655  92.3800251
   3.7954917  51.7374472  92.8660231  53.5320377  11.5347183  49.7513151
  53.8093853  11.1828792  50.5971956  54.1851568  11.2104070  49.1312408
  11.7379415  78.5827494  26.8499947  12.2146344  78.4542131  26.0299492
  12.4010205  78.4751225  27.5318837 113.7209320  83.3855343  31.2857008
 113.6079216  83.3237648  32.2341990 113.4027290  84.2604065  31.0630488
  28.3654475  77.8031921  44.9848080  28.8410115  78.6306286  45.0584316
  27.5020242  78.0517340  44.6547222  22.3939824  95.8080292  17.6292670
  22.0566607  94.9246216  17.4808264  21.8666959  96.3650990  17.0566678
   0.8150902  49.2833710  45.7936192   0.5377077  49.2497110  46.7091274
   0.9980597  48.3720303  45.5651283  39.3974638  52.2840738  30.3490186
  39.0174341  52.8573799  31.0146999  40.3011799  52.5867081  30.2599072
  99.1129780  73.3530378  17.4795353  99.8803711  72.9075241  17.1205723
  99.2815208  74.2825127  17.3249459  52.7333403  23.4073162  33.8278770
  53.4335756  24.0354061  33.6506701  51.9443083  23.8243222  33.4817982
  25.0096154 105.4019833  20.1708627  24.9028134 105.7728100  19.2948961
  24.3368912 104.7233963  20.2273369  49.5042658  81.0280323  17.5060654
  49.9614573  81.1834908  16.6796052  48.6212730  80.7658195  17.2456765
   0.4446910  53.3720779  39.8364663   0.4773187  52.4863052  39.4751167
   0.6948321  53.9380455  39.1061640  16.1914206  67.2797155   2.6024252
  16.5425086  68.1583500   2.7472553  15.2510309  67.4139690   2.4846295
  46.9955826  88.1759930  34.0363932  47.4003458  88.7417603  33.3788919
  46.6775465  88.7790871  34.7082353   9.5732355  89.4180870  29.8902702
   9.3617636  89.8102283  30.7374644  10.5296099  89.4306660  29.8525620
  18.4624481 105.4505062  46.4498377  17.7779293 106.1195660  46.4553213
  18.0918705 104.7329044  45.9360743  18.4800375  63.5999918  23.7354708
  19.1667306  64.2147160  23.4770083  18.4903407  62.9286766  23.0532241
  17.9600132  60.4204559  47.4439526  18.2920218  59.5258665  47.5194836
  18.4298611  60.9082174  48.1203890   6.5952295  84.6943665  21.4806342
   6.0456204  83.9186478  21.3692188   6.6714561  84.7996998  22.4289632
   2.8944328  63.1407499  21.2954402   2.3945127  62.6486158  21.9466805
   3.7479937  62.7081919  21.2717557  31.4368725  94.5851326  19.0058422
  30.8185267  94.2552567  18.3538735  31.6677356  95.4607010  18.6955154
  28.7684083  76.4013100  30.1003265  28.5434675  77.3088932  29.8955488
  28.9330006  75.9972620  29.2483377  21.3164449  91.8370152  31.3294816
  21.2525749  92.7099323  31.7170072  22.2567677  91.6853333  31.2345290
   8.8759768  84.8929119  42.6691914   8.6841148  85.6734657  42.1494293
   8.0926704  84.7625637  43.2036781  30.6811905  58.5035610  49.4293594
  30.4400659  59.3571854  49.0696239  31.6381383  58.4965229  49.4085360
  99.6617508  72.1294641  58.0643415  99.5449638  71.5953398  57.2786522
 100.4626083  72.6269484  57.8988934  46.7386627  45.3270245  28.2633805
  46.5047503  44.4072914  28.1384611  45.9985685  45.6994104  28.7427759
 105.7666302  69.6029186  22.7599740 105.6171894  70.2983570  23.4004974
 105.9240150  70.0652885  21.9367599  20.9000063  73.2876682  17.6228476
  21.0040045  74.2371178  17.6858115  21.3053370  73.0572414  16.7868793
  52.1269846 105.3509331  15.2005577  51.2578344 105.3678703  15.6012154
  52.5623703 104.6003056  15.6045711 101.1480141  77.2231102  14.8814404
 101.1769962  77.5007343  15.7970369 100.3836441  77.6712751  14.5193410
  25.6794405  70.3726578   9.1328430  25.2713346  69.6304178   9.5786732
  26.1934257  69.9763346   8.4292930  21.4214706  89.5639610   3.1914628
  20.8318973  88.8186646   3.0766875  20.8717799  90.3310680   3.0313793
  96.3269901  17.5091481  83.6433697  96.2816334  18.3130252  83.1257248
  97.2382450  17.4615383  83.9324665  76.3325167  77.7159500   9.1153371
  75.8132267  78.4014082   8.6949575  76.0543680  76.9071674   8.6855310
  23.6175776  25.5573416  85.4407978  22.6693940  25.4463315  85.5104828
  23.9626908  25.1839232  86.2517738  21.0792112  28.1038833  89.9031162
  20.8758330  27.6347208  90.7122898  20.2285957  28.3956480  89.5751572
 103.1064034  17.8223312  84.2479038 103.1177616  18.2469261  85.1057053
 102.2386360  18.0187786  83.8948822  38.0940938  65.4434061   4.4446811
  38.9297867  65.4948521   4.9085793  38.0413628  66.2638617   3.9544785
  29.6181750  80.5802345  44.6306372  30.2461123  80.6857681  43.9159441
  28.8620138  81.1032104  44.3642712  38.4523201  59.7222900  31.2097716
  39.2289019  59.1634750  31.2395239  37.7521825  59.1435051  30.9080267
  95.3816223  35.2185535  76.4016008  95.2664280  36.0853934  76.0123062
  94.7023010  34.6809602  75.9944820  45.7064247  94.2389584  21.0860634
  45.1281786  93.5014915  20.8911180  45.2437592  94.7338581  21.7622614
  30.9095454  55.2094984  12.5546849  31.2706828  54.7806358  11.7788684
  31.1377859  54.6264791  13.2787216  85.9048843  55.4401493  23.6229205
  85.1443768  55.4676723  24.2035270  86.4702892  54.7664261  24.0006018
  49.7655630  88.1880665   8.9940518  50.3398800  88.7795639   8.5077101
  49.1480064  87.8618908   8.3394825  68.1680965   5.4585218  24.5951486
  67.5853586   6.1376542  24.9348903  68.7274408   5.2295744  25.3374076
   8.4270209  72.1260309  27.4948478   7.6319081  71.7885780  27.9073429
   8.6499506  71.4712954  26.8331432  54.9182796  42.0059872  38.3206820
  55.2250290  41.4025354  37.6439404  54.1632986  42.4434471  37.9271531
  29.4963360  86.2048817  17.6365197  29.7151399  85.3891754  17.1859896
  29.1932416  86.7887020  16.9411612  36.2978721  56.6766310  39.3446779
  36.2811732  57.2960854  40.0742197  36.5329981  57.2083902  38.5842943
  60.6486130  24.2725658  78.5613012  61.5822220  24.4294572  78.4198999
  60.5951166  23.3481145  78.8037062  10.9678304  51.8569183  34.4006014
  10.9191096  51.9999552  33.4554052  11.3491881  52.6642179  34.7456646
  38.8536644  93.3170891  32.6360106  39.6558905  93.4098721  32.1221471
  39.0478182  92.6165962  33.2587910  42.3861122  60.8104992  35.6314659
  43.2310963  60.3967333  35.4553008  42.5224400  61.7336798  35.4184341
  50.3110886  78.0929756  56.3001251  50.0118971  79.0014744  56.2635231
  49.9368286  77.6858950  55.5188131  59.4050741  85.7230377  70.2264261
  59.6024466  85.6164169  71.1569691  59.2702246  86.6642952  70.1165104
  50.3410149  50.5322027  88.8195896  49.7871923  51.3129139  88.8171673
  49.8926067  49.9186468  88.2376099  26.2622285  64.1606617  16.6316545
  26.6791940  64.3005610  17.4818301  26.5040135  63.2664347  16.3905597
  24.9524021  64.4386816  12.7183294  24.7669911  63.5100603  12.5786424
  24.5596528  64.8774910  11.9637263  20.2570844  48.4296513  17.3076880
  19.6675158  49.0535736  17.7311993  19.6903682  47.9193974  16.7291522
  14.0883541  78.2644415  55.2404881  14.9559557  77.8733301  55.3431225
  13.4802461  77.5392437  55.3837442  62.0183945  78.1418896  17.4232352
  62.5095749  77.4027729  17.7819598  61.2839651  77.7391529  16.9599402
  49.9233007  90.5427742  10.9742665  49.4148970  91.3521576  11.0258234
  50.1207542  90.4428673  10.0429976   6.3681382  67.2591829  10.0556493
   5.9953415  66.8399858   9.2800683   6.1033237  66.6960049  10.7829309
  39.1628480  34.0898228  66.2397003  38.9483595  34.1009092  65.3069067
  39.9035096  34.6905112  66.3223124  38.9156008  40.9233665  45.9269857
  38.7816858  41.0298586  46.8687677  39.3685412  40.0843239  45.8428288
  57.0520496  23.5515404  65.4201889  56.6730261  22.7354479  65.0937462
  57.6331806  23.8435078  64.7178555  29.6392608  76.5095282  73.5691452
  29.8036408  76.5723276  74.5100307  28.6859655  76.5435600  73.4897566
  91.1390781  69.0663385  46.9535446  90.4396725  69.2470121  46.3255119
  90.7052326  69.0833092  47.8066158  59.6440840  99.1704845   6.0138625
  59.5106459  99.2442989   6.9588375  60.0456238 100.0023746   5.7629716
  40.7346153  19.4345140  89.9403000  41.0245085  19.2471933  90.8331108
  41.0577869  18.6963296  89.4237041  45.0127983  73.5437584  45.5288458
  45.7695103  74.0938854  45.3264093  44.2571640  74.1134357  45.3849030
  22.3697448  64.1405153  45.4783440  21.5222192  64.1252041  45.9229803
  22.9782987  64.4803381  46.1344051  50.4561138  28.7410450  40.6619120
  50.2487803  28.7033510  41.5956259  50.9400654  27.9330301  40.4912186
  16.0759020  53.8503885  56.8303442  15.3172135  54.4321156  56.8774128
  16.7866409  54.4087267  56.5151644  50.3559065  39.7950363  28.0491614
  50.4037523  38.9934802  28.5701728  50.8085346  40.4519272  28.5781670
  60.2285528  35.3465176  24.7586584  59.7835732  36.1757278  24.5836401
  61.1167288  35.5997419  25.0101638  47.4190569  84.8592949  56.1319447
  48.3469486  84.6704960  56.2719679  47.0218325  84.7633457  56.9975281
 114.0111533  76.6384363  12.1728277 114.0598525  77.3986006  11.5931690
 113.3855853  76.0522509  11.7470539  20.2663589  94.5799923  29.9545979
  19.3210590  94.5742035  29.8042393  20.3612900  94.3980789  30.8895445
  45.1547480  39.5610762  59.1316319  45.9882259  39.5631623  59.6023178
  44.9427891  38.6338663  59.0239906  15.6393421  63.5775137  42.9419088
  15.5974734  64.5311403  43.0131531  14.8374581  63.3365536  42.4780607
  80.9579754  17.3845327  83.9525986  80.6662178  18.2512522  83.6699200
  81.3867188  17.5388849  84.7943783 105.8679771  72.8174019  72.1723270
 106.6560745  72.2750664  72.1405840 106.1307526  73.5929728  72.6679802
 106.6854668  51.8638372  73.8249063 107.4721336  52.3245907  74.1166067
 106.9651794  51.3811350  73.0470896  75.4710054   1.1354252  86.4563942
  75.6490993   1.0311320  85.5217075  75.0206614   1.9775242  86.5219021
  38.1962419  67.4545288  28.3012509  38.5707068  66.8750429  28.9647269
  38.6477280  68.2887602  28.4295154  96.6187286  93.7973690  10.9585834
  96.2302971  93.8705540  11.8303633  97.5555325  93.6884308  11.1221504
  48.3164310  90.7016087  35.6740165  49.0864515  90.2208328  35.3704500
  48.5943127  91.6175461  35.6834912  12.0505428  91.7151070  43.1378508
  11.9918191  91.3564968  42.2523069  11.4227057  92.4375916  43.1458044
  18.7145913  66.7318201  33.5690761  19.2177022  67.0236540  32.8088498
  19.2987537  66.8776131  34.3132067  99.2211056  46.3847303  51.5316629
  99.0079212  45.4585552  51.4177513  99.2859650  46.7269897  50.6400967
  29.3061471  28.5681939   5.0226796  30.2382898  28.6913300   5.2020669
  29.2165184  28.7481976   4.0868393  45.4104567  54.1078472  22.0921707
  44.4806957  54.0854073  21.8657398  45.8136988  54.6282482  21.3973260
 108.1154156  39.5736289  29.8416638 107.5305557  40.3308582  29.8139691
 108.9241982  39.8805666  29.4319248  28.6671448  13.8157356  34.1727901
  28.2081127  13.2498264  34.7934914  28.5619831  14.6976483  34.5297265
 105.9643173  61.1542511  89.6498394 105.7079601  61.8218946  89.0136242
 106.4961243  61.6259241  90.2908802  11.9377077  86.6738701  47.8762531
  12.8341675  86.3383484  47.8719091  11.8738735  87.1969604  47.0771694
  50.5816650  20.3670311   4.3337765  51.2091398  20.9104466   3.8571125
  51.1101007  19.6603644   4.7047380   6.2408674  74.6383619   7.4769050
   6.6840005  75.0767708   8.2033098   6.0426271  73.7632990   7.8103590
   7.3698968  35.2436161  32.6809311   8.1688726  34.7882581  32.9464865
   6.9375849  35.4689431  33.5046840  54.4112444  83.3656120  30.3992033
  55.1423550  83.9381123  30.1669121  53.7951851  83.9376259  30.8569241
  31.2067485  65.7569218  24.9433041  30.3692532  65.7580853  25.4068017
  31.8152952  65.3342485  25.5493164  30.6450081  97.3489666   4.1581878
  29.8839092  97.2504902   3.5861182  30.5474925  98.2219791   4.5384070
  36.9473529  60.1082993  37.1867251  36.5945673  60.9046555  37.5837111
  37.7563739  60.3912687  36.7605281   7.1703428  52.5614023  37.8386998
   7.8891933  52.0200539  38.1649303   6.7900962  52.9536390  38.6247015
  25.4661632  62.1922874  43.4505749  25.6980610  61.2637901  43.4691858
  26.1050224  62.5868654  42.8569412  94.6576309  95.4826546  63.3595753
  94.3594742  95.4177284  62.4523115  94.5487595  94.5990944  63.7112808
  33.0076456  66.3719416  51.7641878  32.7437091  65.6412268  52.3233223
  33.9571762  66.4256191  51.8725348  32.8076220  52.3993111  60.2429676
  32.1911812  53.0783606  60.5170488  33.4169555  52.3186684  60.9767532
  38.6508060  57.8054857  55.8542252  39.3877220  57.2058535  55.7374620
  38.0410957  57.5750113  55.1532507   5.0020790  77.5093317  33.5021138
   5.8504009  77.1049070  33.3203959   4.3952119  77.0713997  32.9053235
  62.5205898   1.6531119  13.5258114  61.5659618   1.6114485  13.4694028
  62.6916742   2.2549507  14.2502081  52.0554209   6.1276692  37.6201606
  51.2792826   5.6725109  37.2935534  51.7432451   7.0051390  37.8411198
  34.5950317  68.7336683  40.1422405  34.1844296  69.5645761  39.9030137
  35.4536271  68.9809036  40.4856348  37.8986716  98.0050850  40.4379177
  38.2413125  97.4070740  41.1021566  37.5653553  98.7511635  40.9364080
  60.2738810  50.6159210  33.2278752  59.6209145  51.2842464  33.0199957
  60.2455711  50.0139141  32.4842238  29.7353315  75.4733229  18.7580454
  28.7818837  75.5578804  18.7625873  29.8927069  74.5460987  18.5799587
  56.4335394  68.3825254  21.2392902  55.7787800  68.9592505  20.8457136
  57.1384239  68.9704895  21.5107107  26.3619471 103.1763268  54.0644884
  26.5579152 102.6338100  54.8283672  27.1842885 103.6276150  53.8739109
  38.2154012  96.6837788  12.6424599  37.8945398  96.6754913  11.7406774
  38.3823252  97.6077080  12.8288043 108.7221050  98.5576820  24.3522334
 108.8337994  99.3145370  23.7769747 108.3058357  98.9130592  25.1375103
  77.7842045  21.0725307  17.6987267  77.1229935  21.3991094  18.3089519
  77.3642683  21.1245966  16.8401384  47.0390987  91.2443066   7.5753146
  46.6156816  91.6463852   8.3337891  47.9586983  91.1645603   7.8286934
  26.6682935 101.5464211  64.4453573  26.1682987 102.3611259  64.3954611
  26.0715771 100.9242821  64.8614168  29.0381646  77.6984310  62.8669786
  28.9914393  77.2496700  62.0227814  29.8764920  78.1599808  62.8467989
  18.9103627  94.7515106   5.7406014  18.5925031  95.4258442   6.3409895
  19.4957960  95.2183628   5.1443273  13.5924959  35.9007621  24.7055030
  13.4828842  36.6673255  24.1428304  12.8101885  35.3727555  24.5460129
  19.5630753  54.2847586  28.3997536  18.7127185  54.1238689  27.9908037
  19.6619093  55.2366447  28.3803606  62.6023054  22.8265595  73.2526064
  63.5467291  22.6972103  73.3395576  62.4519491  22.8662443  72.3081207
  34.6202683  76.8433571  22.9652309  34.7688317  77.5723124  22.3629189
  33.7206435  76.5673542  22.7899337  48.7983084  90.2278900  27.0433140
  48.6567354  91.1496162  27.2592306  49.3441725  90.2471447  26.2572527
  13.6093795 105.0608730  17.7936721  14.3394244 104.4530296  17.6762509
  14.0239882 105.8897972  18.0328894  42.9807234  78.3215094  25.7592654
  43.6965752  77.9495668  26.2744832  43.3097458  78.3260250  24.8604012
  47.5601864  74.0136480  35.1346564  46.6277361  74.1980267  35.2476883
  47.9482222  74.2098570  35.9873939 111.5154266 104.5262623  47.6668358
 111.4646339 104.9028301  48.5453844 110.6196022 104.5751190  47.3331499
  47.9050207  18.2359266  49.9637794  47.2600174  18.1006134  49.2695904
  47.8252077  19.1631985  50.1874495  84.2187881   3.7008065  83.5328865
  84.4780159   4.5132327  83.9676189  83.9596558   3.1189552  84.2473984
  23.2274127 106.4755344  22.5809813  23.8703227 106.4794064  21.8718386
  22.3800755 106.4600658  22.1359968  45.5647469   1.2999982  58.2764626
  45.2212381   0.5523139  58.7655497  46.3861609   0.9833890  57.9006147
  13.7346721  68.0341768   7.8390455  13.9681423  68.0878496   8.7657833
  12.9740715  67.4534607   7.8169096  19.2628860  62.5926971   2.0232265
  18.3497834  62.5803804   2.3101471  19.2575812  63.1288767   1.2303131
  12.1569419 102.7662182  37.8064561  11.6547334 102.9846573  38.5915065
  12.2774661 103.6035347  37.3585486  33.4897614  67.9765749  11.2471187
  33.6127019  67.7624035  10.3223217  33.6530757  68.9183283  11.2986338
  95.6628323  51.6039944   9.2960685  95.8996201  51.2045574   8.4590399
  96.4999485  51.8521166   9.6883738   9.4579703  72.0379114  19.5738220
   9.7235501  71.7292547  20.4400969   9.4790852  72.9923916  19.6427798
  48.4258556  99.6777630  48.1751585  47.9085875  99.4384480  48.9441776
  49.1159964  99.0156841  48.1352139   4.1520652  49.4075298  69.7719097
   3.8119307  50.2661419  70.0235462   4.1931254  48.9163113  70.5924273
  14.6201825  47.4697161  12.9518032  14.9464834  47.5197124  13.8502800
  13.7136459  47.1760321  13.0422080  50.6418562   9.6835190  27.2517848
  51.5272427   9.4059801  27.4869275  50.2714157   8.9335495  26.7864323
  50.6430864   3.7174213   8.2962728  50.2197266   4.3987054   8.8186246
  49.9489737   3.3867362   7.7261072  36.7995143  93.4007263   0.8137097
  37.2316527  93.9559460   1.4627263  36.0930300  93.9446831   0.4655311
  23.7678838  73.5983562  52.6050425  23.9418292  73.5276270  53.5436487
  23.3278036  74.4425964  52.5059605 101.6929054   2.1275526  70.5072117
 101.8330479   2.1626031  71.4534521 102.4401665   2.5973198  70.1368570
  46.3128519   7.9715240  34.0145993  45.7609224   7.2038627  34.1639400
  45.6958675   8.6735839  33.8080287  25.3848529  70.4716396  44.3519258
  25.0492382  69.7871685  44.9307966  26.2772918  70.6294870  44.6599293
  79.4897699  14.5263851  30.8915114  79.9438000  14.5430744  31.7340136
  79.8123455  15.3005815  30.4302168  58.4274530   0.6004816  15.6635094
  58.9505529   0.8157853  16.4356744  58.8786221  -0.1459093  15.2690744
  58.7819386  13.3828938  36.6950655  58.4438705  14.0258014  36.0716772
  59.6985626  13.6289549  36.8195009  55.1164436  87.1712875  53.6192560
  54.2634773  87.5644302  53.8039589  55.3727388  86.7570686  54.4432497
  14.1351938  70.0075626  47.2326326  13.8592792  69.1024351  47.0882368
  14.7704864  69.9533033  47.9465580  47.6164532 106.3038921  20.8112526
  46.7874670 105.9881401  20.4516554  48.0331802 105.5223846  21.1743212
  49.5663881 105.6331730  55.9074783  49.8854685 105.8681202  56.7788076
  48.6223030 105.7855511  55.9489965  27.0208621 105.6099319  21.8297601
  26.9467735 104.9075031  22.4757743  26.3484097 105.4087067  21.1789536
  46.0502720  85.3146553  22.3255110  46.4034653  85.8957958  22.9991269
  45.2717304  85.7680607  22.0022082  58.1001759  10.6711185  58.0049562
  57.3519802  11.2255847  58.2263231  58.6282063  10.6515026  58.8031006
  16.8707323  32.7052450  85.9375381  17.5376713  32.2667360  85.4092026
  17.3533666  33.3697605  86.4291763  43.4261084  48.6811066  23.2053328
  43.8700724  49.4451046  22.8373098  42.9972887  48.2689476  22.4553537
 111.4409351  68.2481194  65.2176762 111.5959454  68.1473207  66.1568499
 111.8760109  69.0697479  64.9899387 107.9299927  45.7066917  90.8745575
 107.2963810  45.0277090  91.1064053 107.9743385  46.2674284  91.6490555
  41.6443682  28.5805440  15.1127744  41.2884903  29.2413211  15.7068741
  42.0433807  27.9295135  15.6899917  64.0117025  91.6440868  31.2692761
  63.7851286  92.2202015  31.9993305  64.1428423  92.2361755  30.5286956
  91.4609528   6.4472687  88.4289646  91.3889599   5.7283747  89.0568542
  90.5792809   6.5389895  88.0677605  35.8519483  73.2601929  71.2188005
  36.4443707  72.7695608  70.6491137  35.3118563  73.7732601  70.6177235
  20.3266978  74.9406004   4.0415975  20.0800014  74.5088053   3.2237190
  21.2632871  75.1144028   3.9476481  46.8146467  56.1791468  32.0610309
  46.1340189  56.8083096  31.8220115  46.6180849  55.4028893  31.5366101
  42.9343605  84.4066334   0.5695060  42.6063919  83.7751198  -0.0706931
  42.2590303  84.4332409   1.2473373  25.0039864 106.1500931  46.3432074
  25.4286146 105.5221939  45.7586956  25.3882384 105.9753418  47.2023058
   5.1250732 103.4541702  13.1676662   4.6517301 102.9923153  12.4756575
   6.0306442 103.4848404  12.8590691  36.3673759 102.9064941  30.7231236
  37.0529008 103.5658073  30.8308434  35.5490851 103.3981323  30.7932997
  34.2731023  73.3350897  52.8630018  33.6888146  72.6166153  53.1051350
  34.3129778  73.8853693  53.6452007  28.0101323 103.5140419  47.4260902
  28.0399776 104.0499115  46.6335106  28.7139702 103.8593197  47.9752970
  34.4439864 100.7758617  27.4698877  34.7873068  99.9836254  27.0567083
  33.5130882 100.7780552  27.2470498  99.6875191  54.6020555  88.7846470
 100.5267143  54.4426250  88.3527088  99.5291519  55.5380917  88.6622334
  29.0913153  84.2909145  44.4976282  28.2010460  84.6078396  44.3452597
  29.4290185  84.0958977  43.6234665 110.3055382  85.2582359   9.6975511
 110.1797581  85.9868717   9.0896839 109.5006657  84.7450924   9.6261477
  26.8835473  87.6401615   0.8704114  27.3686361  87.5195789   0.0540916
  25.9816885  87.4073982   0.6497210  96.3541508  44.6956015  90.8113480
  96.0709858  44.0148115  91.4217281  95.5515480  45.1680613  90.5903530
  27.0912004  69.2688704  48.8261127  26.7323136  70.1559734  48.8042545
  28.0367947  69.3949175  48.9048195  91.1344910  26.6403008  24.2415190
  91.9669247  26.2918568  23.9223599  91.1576557  27.5681186  24.0073204
  33.8315797  84.3536663   1.2190016  33.8220644  84.7144222   2.1055657
  33.6147904  83.4285259   1.3345347  67.0159721  81.5177917  17.4996030
  67.0824051  80.7555580  18.0747771  67.4293041  81.2382126  16.6827655
  14.9655569  66.0898638  38.7325525  15.2064574  66.3125515  37.8333259
  15.1779044  65.1600838  38.8141394  37.9939699  60.3210163  14.4288564
  38.7932396  60.6625271  14.0278912  37.8403044  59.4873667  13.9842844
  25.9402442  56.7105865  41.1197519  26.5273404  56.1220360  41.5942574
  25.9057426  57.5005817  41.6591501  35.6300473 100.3484344  30.0716901
  35.8981633 101.2189293  30.3659296  35.1826859 100.5040169  29.2398882
  53.4712410  91.5036392  25.7095194  53.3327007  92.1075249  26.4391565
  52.9767513  91.8862724  24.9847364  45.6652689  78.5303259  33.1952286
  45.8581543  78.1815434  32.3249555  46.5217209  78.6166906  33.6138725
  27.7877712  97.5573826  37.8069377  28.6750650  97.3104668  38.0676508
  27.3925304  96.7414379  37.4999428  40.5377865  38.3956623  15.1755726
  40.8657503  38.7772846  14.3613017  40.4002953  37.4712920  14.9685240
   9.0949374  65.0486565  40.1861000   9.5576322  64.6806097  39.4333100
   8.3197320  65.4658031  39.8102283  58.4304762  94.4603252  42.4560881
  57.4737835  94.4319439  42.4432802  58.6584091  95.1407051  41.8225574
  21.7235446  99.4706726  26.5939474  21.6201568  99.1589928  27.4930549
  22.1555257  98.7482357  26.1381960  14.7400427  80.8658409  76.4739037
  15.1190007  80.0344944  76.7593622  14.3239641  81.2215614  77.2591257
  50.2276611  21.8791676  79.9765110  49.3348694  22.0111513  80.2954674
  50.2004337  21.0317969  79.5321512  40.5707693   1.6975997  13.3353436
  39.9867105   1.5001881  12.6031291  41.4299297   1.8176024  12.9307783
  66.3462114   8.7088579  23.6161780  66.8427658   8.5638595  22.8107953
  66.9766092   8.5484505  24.3183875  38.8395548  97.7980804  27.7217865
  38.6114407  98.2015896  28.5592675  38.8488650  98.5257435  27.0999718
  46.9324446  85.6877232  46.4710045  46.0862398  85.8803177  46.0671806
  47.5573349  86.2272644  45.9866047  69.7120619  70.9418344   8.3838379
  70.1350355  70.0837088   8.4146821  70.1731920  71.4599991   9.0434510
  25.1704931  83.5290241  19.8532391  25.2482581  84.1634560  19.1407168
  25.3304291  84.0395260  20.6469965 113.1240368  83.6030006  70.6639719
 114.0707111  83.6522007  70.5312538 112.9991055  82.8293133  71.2135410
  41.2132406  89.0634727   1.5530623  42.0755529  89.4208431   1.7650464
  40.9854126  88.5229778   2.3094973  66.0826874  10.6680536  54.9575710
  65.5262089   9.8946446  55.0492287  65.6428194  11.3423371  55.4753447
  96.5894127  70.0922775  31.5969992  97.1148109  70.3646994  32.3493052
  96.1317825  70.8874130  31.3239241  21.9161892  74.1168642  69.2604256
  22.5549436  74.5634556  68.7047434  21.2015462  73.8868093  68.6666298
  98.2451916 104.5846748  31.9596386  98.3152294 103.6771679  32.2558975
  99.1355515 104.8211479  31.6996837  27.2192383  66.1238623  31.4478493
  27.1835160  65.7705116  32.3367238  26.3804746  65.8771896  31.0581589
  47.3640060  82.9720211  48.9732218  46.4516306  82.7516079  48.7855625
  47.7255201  82.1789074  49.3688297   3.8147956   1.9116627  27.7742386
   3.9230955   1.6465238  28.6875868   3.9573967   1.1086306  27.2732043
  21.8235421  84.2359257  11.9011760  22.5057840  83.5662460  11.8531251
  22.2922540  85.0635147  11.7933059  22.2430778 101.2946796  52.0885372
  21.4503360 101.5618992  51.6233635  22.0960617 100.3734016  52.3027039
  43.3032990  80.2769375  59.8842859  44.0712547  80.1052189  60.4292488
  42.7919292  79.4690561  59.9296379  87.8996849  20.4384089  71.5422344
  87.0066452  20.6976557  71.3152885  88.0809021  20.8966756  72.3628378
  45.4249668  62.8086662  57.8867292  45.1866674  63.6890459  57.5962543
  45.2625608  62.2528267  57.1245670  34.6261621 105.4580688  33.2802248
  34.4690132 105.0331593  32.4370217  34.3624353 104.8062706  33.9297199
  70.5645752   0.6264755  46.9611502  71.4973783   0.4509103  46.8375111
  70.1235342  -0.0942267  46.5113688  47.9293251  97.9112911  31.4785242
  48.6028767  97.8414917  32.1550488  47.8914547  98.8455677  31.2737441
  50.0143766 100.7214451  24.3685150  49.7646332  99.9376488  23.8790965
  50.4290724 101.2880325  23.7179518  18.4748054  78.9470243  19.8292112
  18.3238828  78.6624146  20.7305741  19.2410827  79.5180798  19.8834789
  71.2956047   9.8418307  37.1234226  72.2330570   9.8074198  37.3137641
  71.0540009   8.9330512  36.9445992  80.4968834  14.1116667  10.0992084
  79.6093559  14.0317714   9.7497177  81.0448837  14.2625821   9.3290460
 109.7501659  38.4278989  10.5200005 109.5376015  37.4971271  10.4513514
 109.0126705  38.8073993  10.9978211  30.5066252  96.0442352   6.7692149
  29.6762753  95.6703186   7.0640755  30.3401971  96.3149357   5.8663017
  81.9612598   3.3375135  21.8472838  81.6216278   4.1268256  22.2690248
  81.3190079   3.1340009  21.1673450  31.7936492  81.7576790  48.0969286
  32.4504066  82.4241352  48.2987881  31.0202622  82.2558880  47.8325558
  41.0182905  24.2718005  85.0401115  40.6516409  24.7313309  84.2847061
  41.5794182  24.9201035  85.4656315  41.6477537  84.5067978  21.0548067
  41.7496443  85.1176357  21.7846870  40.7715607  84.6855736  20.7133961
  16.5475249  75.6865692  51.4668322  17.0430148  76.1260796  52.1578836
  16.1976480  74.9003553  51.8859768  54.7602320  95.1140785   7.0108652
  54.1381311  95.8317757   6.8919897  55.5169058  95.5204964   7.4333549
  12.0154655  68.1296921  83.9431667  11.4665627  67.9570913  83.1782150
  12.6711142  68.7536287  83.6316204  69.3642569  94.4979572   2.7889630
  69.6585035  93.7802410   2.2281402  68.6397648  94.1268444   3.2925731
  10.0958788  77.7664948  29.4114542  10.0037575  77.8884172  28.4665298
   9.5363975  78.4414482  29.7957063   7.8179574  80.2085972  48.1701565
   8.5387850  79.5999289  48.3318996   8.1538236  81.0586071  48.4546137
  44.6374893  89.6198940  80.8048725  44.4822741  88.6767769  80.8564281
  45.5907011  89.7050571  80.7855797 109.5983791  89.0352631   1.9049241
 109.0871525  89.7677517   1.5609246 109.7621250  88.4789276   1.1434077
  28.9631748  79.7643137  33.5450006  29.1105080  80.0187397  34.4559288
  29.7961068  79.9432850  33.1086183 101.4643097  81.6995335  24.7338629
 100.5217171  81.8502903  24.8048043 101.5448570  80.9735775  24.1152096
  88.9377117  11.6248679  25.3531575  87.9923534  11.4765191  25.3301477
  89.2205238  11.2394249  26.1824226  21.2830424  78.1737995   3.3990833
  20.8395934  77.3492336   3.5982746  22.1450043  78.0865955   3.8060838
 107.5231361  27.1464753  83.7867451 107.0421124  26.6504550  83.1243229
 108.4202862  26.8181562  83.7272072  93.2559204  19.1528308  93.0045605
  92.5159931  19.7567165  93.0682945  93.0996799  18.6672282  92.1946144
  73.2564831   9.2305803   9.5475775  72.3332644   9.4519448   9.6696430
  73.6198187   9.2219448  10.4330957  96.3567734  16.4782596  90.4921532
  96.6471195  17.3158741  90.8531666  95.4032516  16.5521324  90.4525757
  29.9739695  63.2898045  31.9043159  29.9568605  62.3604965  32.1330667
  30.8003879  63.6102390  32.2656822  13.0744100  33.8492012   8.6032730
  12.5780702  34.2221975   7.8747451  13.7271380  34.5165634   8.8149458
  13.3480763  87.6740646   1.8167640  12.9601467  87.0029259   1.2552436
  13.8239515  87.1812725   2.4852914  14.1157818  89.5533085  39.0465236
  14.3003178  90.2730274  39.6499920  14.9375677  89.4201660  38.5741115
  26.3258839  51.7908907  25.3264856  25.5369830  51.2770748  25.4992962
  26.3187075  52.4737024  25.9972668  28.7761283  74.7965765  32.3199964
  28.5362005  75.5251884  31.7474651  29.4702673  74.3382883  31.8463159
  30.9177065  82.4174213  18.5823750  31.6856766  82.9751778  18.4584200
  30.2074003  82.8872871  18.1454265   8.3968556 104.6550655  71.1508703
   8.2062441 104.1934299  71.9674397   8.0093074 105.5221748  71.2698603
  99.9683571  20.9211087  37.9173565 100.3162575  21.6419387  38.4423399
 100.3648090  20.1362514  38.2955933  45.8722115  91.0240936  28.7384558
  45.1897955  91.0541630  28.0679107  46.0650587  91.9428635  28.9252901
  55.6794596 101.9903564  35.4566765  55.6437159 102.0713425  36.4097738
  55.9796619 102.8475761  35.1545453  45.3188276  78.1172276  27.9563355
  45.7134390  78.3102989  28.8067675  44.6453428  77.4644470  28.1474614
  80.5021667   2.8771943   4.9485853  80.5114841   3.8335642   4.9873403
  81.2362576   2.6079497   5.5007142   1.6459945 104.8379803  50.8273983
   2.3928761 105.2369881  51.2737083   1.8436053 104.9354267  49.8959017
  15.5383563  86.4603233  13.7495065  16.2727749  86.1522102  14.2804754
  14.7602332  86.1769676  14.2295814   4.4174907  92.4862862   9.3788761
   3.9084053  91.8009281   9.8117095   5.2891457  92.1055794   9.2715907
  18.6219811  98.1265354  47.0264387  18.2116008  98.8499069  47.5003099
  18.2726085  97.3386288  47.4428177  57.9500294  91.4422989  28.6317873
  57.9541874  91.7145634  29.5494390  57.0611048  91.6298389  28.3303380
  54.1346645  24.5187068  13.1516814  53.5945415  23.7960815  13.4715450
  54.5560074  24.8685384  13.9367437  29.0807343  69.1010618  22.5761962
  29.3568635  69.6807384  23.2860947  28.8907647  68.2679033  23.0074692
  55.3873968   7.2440290  64.3851233  55.7532167   6.4448142  64.7641563
  55.5485821   7.1590126  63.4454298  31.4333940  35.9741354  53.3043957
  32.2282267  36.0794497  52.7815390  31.6781187  36.2822866  54.1769695
  34.5154667  80.9392166  14.9787140  33.7641406  81.1168575  14.4128668
  35.1058888  81.6781902  14.8319173  50.6779194 105.7100773  23.1347537
  50.5878496 106.1430359  22.2858357  51.5290642 106.0004330  23.4625912
  80.9725666  29.7227788  68.5110474  80.5863953  28.9015174  68.2066917
  80.3766441  30.4004407  68.1918526  56.4028263  55.3744459  64.8999882
  55.6563377  55.2516174  65.4864168  56.3828659  56.3054895  64.6786404
  95.6918526  38.2017088  82.0800972  96.3142776  37.6162100  81.6487980
  95.6485939  37.8831410  82.9816914  15.1140022  56.1556721   7.5021088
  14.8497856  55.4193926   6.9504607  14.6919656  56.9169092   7.1038240
  85.9591293   8.2852924  27.0525789  85.4824066   8.9381868  27.5651121
  85.8082676   7.4609286  27.5150681  51.6619253  90.6608105  31.4242029
  51.1407614  90.7272625  32.2243309  51.7382860  91.5626144  31.1125112
  29.0247369  56.1396170  29.4574094  29.1525984  55.2027798  29.3083453
  29.3950725  56.5584993  28.6804795  40.7075024  92.7946663   8.0447644
  40.1745510  93.4540462   7.6004457  40.1828814  92.5327587   8.8013422
   2.1902698  24.7580218  85.1856232   1.9126512  24.0152860  84.6494293
   1.4962199  24.8554635  85.8375740  61.5902567  10.9377265  68.7812233
  61.4823914  11.4147353  67.9583836  61.7299128  11.6205215  69.4373608
  78.1165218   5.7146424  89.8622513  78.3233309   6.6343677  90.0282860
  78.9324379   5.2488428  90.0454044  84.8335361  99.9753571   5.9149057
  83.8811588 100.0648499   5.8802080  85.0163841  99.7087193   6.8158501
  47.8995085  77.7070761  45.2873325  47.6680279  78.6249399  45.4293776
  48.5193825  77.7264595  44.5582151  66.4490223   1.4860280   5.0022078
  66.1203051   2.3670979   4.8236266  67.3944187   1.5985958   5.1011658
   0.8012450  78.5786486   2.0791946   0.4678337  77.6884508   1.9668905
   0.3266896  79.0960121   1.4285290  30.7927752  84.3360329  77.8700161
  31.0187578  83.4846401  77.4954510  30.3250766  84.7896671  77.1687984
  37.9906034  54.7865772  24.7092247  37.0724893  55.0069475  24.8664927
  38.1524348  54.0240383  25.2647209  28.7307334   3.7102211  64.7222948
  28.8793230   4.1992548  65.5316114  29.6072006   3.4629568  64.4275093
  28.0828691  97.1915436  44.9498272  28.8268542  97.3739052  44.3758392
  27.4657965  96.7120457  44.3970728  34.2015138 107.0911230  13.0998862
  35.0908389 106.7691838  12.9526067  34.3215909 107.9660938  13.4689927
  23.0487227  83.8694477  44.4051695  22.2829890  83.9583111  44.9726057
  22.9664803  82.9938507  44.0272856   0.9821919 102.7856445  17.2642756
   1.2321208 101.8898773  17.0376575   0.4385363 102.6920033  18.0465174
  24.5516086  47.9183531   3.3582303  23.9108062  47.3186111   3.7402216
  24.9864340  48.3163643   4.1123825  18.5654151  72.5037241  50.0262308
  18.3061099  72.9807711  49.2379332  19.1763496  73.0909061  50.4714394
   4.0353915  83.1820583  61.3720608   3.6183399  83.0410385  62.2220087
   4.8251617  82.6419735  61.4002371  38.6316895  82.9202175  51.8397808
  37.9358006  83.5536671  52.0150471  38.8822293  82.5943565  52.7042341
  57.7613115   7.7676785  41.8459749  58.6973858   7.9618388  41.7980576
  57.4371719   8.3243465  42.5539875  36.2902713  92.5866890  27.3053980
  36.2752700  93.3771801  27.8449726  37.2006321  92.5086784  27.0201111
  30.0578237   2.8107384  36.6116929  30.0357985   3.7675798  36.6258693
  29.1593194   2.5475037  36.8107581 108.0056381  93.2920837  29.1028619
 108.0422211  94.1585159  28.6976624 108.9225483  93.0440617  29.2211008
  65.3489780  82.2477531  26.9538665  65.9890223  82.8229523  26.5346718
  65.4860067  81.3953972  26.5404248  38.1869698  83.4313679  21.0478067
  38.4834075  83.9655495  20.3109193  38.4631157  83.9192295  21.8236732
  35.4437685  76.4948273  28.9008164  36.0509753  76.1005783  28.2746363
  34.9124408  75.7623434  29.2128921  36.4491963  83.2493973  25.4903555
  37.1110058  83.8301945  25.8657408  36.1024904  83.7339401  24.7411895
  43.3691931 107.6613331  20.5436873  43.4345675 106.8642521  20.0177431
  43.7445831 107.4208450  21.3907290  97.7669907  64.2397308  37.0650291
  98.1444931  63.4029627  36.7938304  97.3506641  64.5822382  36.2740874
  34.4873595  73.3385468   7.4137264  34.0958238  72.4938631   7.1913767
  34.1467214  73.9417458   6.7531574  39.3697906  49.8214149  43.3007812
  40.2643538  50.1385021  43.4250641  38.8432670  50.3481531  43.9020729
  66.5241766  20.1235485  36.4686561  66.1785221  19.6270370  37.2104335
  67.4742603  20.0909281  36.5804720  70.6227589  33.3403254  23.3854795
  70.4045439  33.6426473  22.5038815  70.4479551  32.3994207  23.3661389
  37.9971743  90.7243633  28.8961363  37.4703503  90.8523178  29.6850038
  37.5899553  91.2917233  28.2415390  31.5538311  84.0305805  69.1654158
  31.1839437  83.4866524  68.4700346  31.9383478  84.7773838  68.7064219
  28.3536363 101.3022327  48.8597727  28.0693388 102.1393585  48.4928560
  28.9860463 100.9650326  48.2252789  21.5632701  87.7211761   9.8634732
  21.4128017  86.8119621   9.6047777  22.0384407  88.1044579   9.1262227
 111.0388374  38.4828305  69.4708490 110.9233665  38.9649320  68.6520243
 111.4134693  37.6434445  69.2037964 107.6028538  91.6098881  66.6354847
 107.3027325  91.6352177  65.7269049 108.3756638  92.1745396  66.6482878
  10.2122700  85.6214714  29.9886346  10.0014281  85.1241207  30.7788348
  11.0433805  86.0511780  30.1907229  41.8578053  93.7018013  69.4573164
  41.4813185  94.0928745  68.6689329  42.4127245  92.9931355  69.1315889
 101.1647034   8.8046521  32.2206306 100.3786278   9.2821938  32.4857450
 101.7332840   9.4729036  31.8380356  16.2517750  83.3689976  36.9692564
  16.9080865  82.9845524  37.5503659  16.6024494  84.2321777  36.7497349
  84.3484879  21.3789701  12.8924620  85.1562023  21.8781352  13.0135763
  84.4256783  20.6464577  13.5037708  15.8253586  96.2246513  28.2963729
  14.9871802  95.7695389  28.2153893  16.3435364  95.9055519  27.5575280
  46.0844326  71.5255070  16.7137730  45.6450319  72.0395327  17.3912191
  45.5355167  71.6338348  15.9371209  30.3869486  77.5667238  23.5325933
  30.7382083  76.9968557  24.2167687  29.5322943  77.8412247  23.8649249
  16.3127112  56.4304638  86.9048786  16.2948120  56.8079233  86.0254288
  16.8012619  55.6134176  86.8049431  33.7732053   1.1713379  44.7545338
  34.6694756   1.0422020  45.0647783  33.6612606   0.5157805  44.0660954
  33.0662823 101.0932446  18.8660634  32.1472383 101.1699486  19.1223943
  33.5199237 101.7421722  19.4039619  83.7121296  74.1901159  34.1610885
  83.0409718  74.2059851  34.8433828  83.8249302  75.1081514  33.9146829
  66.8287134   5.5908549  91.2148571  66.2476587   6.1543781  90.7039356
  66.2876415   5.2868146  91.9435787  55.3501129  96.7651558  29.1186786
  56.0908604  96.2559223  29.4476295  55.0431108  96.2757778  28.3554673
  34.4139004 100.1523972  32.4915791  35.0561523 100.1251316  31.7823529
  34.6201491  99.3890095  33.0309606  30.0488591  83.5210133  36.4876938
  29.5647144  84.2462349  36.8825316  30.1363921  82.8794956  37.1926928
  96.5504360  31.3071132   0.5450716  96.0768604  32.1215057   0.3755849
  97.3903847  31.5893745   0.9070712  85.6570530  20.3206277   6.8347496
  86.1168766  19.5396519   6.5267360  85.2419567  20.0471640   7.6527619
  71.6411734  17.9867041  15.5213594  72.5086212  17.7485311  15.8485281
  71.5662766  18.9238286  15.7014132  61.8667078  13.0173254   6.3732570
  61.9455338  12.2719443   5.7779211  61.0423756  13.4358621   6.1251813
 105.5325794  -0.2076655  51.7117119 105.1656246   0.6758133  51.6794729
 106.2426186  -0.1956638  51.0698986 100.1352978   6.3969910  31.0477471
 100.4086018   7.1862471  31.5153074 100.0800800   6.6684258  30.1315022
  75.4202175   1.3732167  10.0106466  75.5550241   1.6565123  10.9149706
  74.4752216   1.4441080   9.8757917  62.6453876 101.0601521  82.2274780
  63.1575775 100.9141827  81.4321327  62.3941803 100.1824093  82.5150394
  89.3907070  16.6917121  41.1470222  89.0592384  16.4240301  40.2898741
  89.7885036  17.5486124  40.9930563  84.2058468   1.1137019  39.3093848
  83.4192371   0.7750383  38.8818502  84.6115303   1.6786204  38.6517239
  13.6840427  42.3919439  65.6269264  14.4338191  42.6421881  66.1667871
  13.7603343  41.4420748  65.5365992  28.1498408  81.0560703  66.0456800
  27.3451877  81.4628887  65.7243299  28.7500048  81.0912323  65.3008318
  28.5074902  95.4871845  40.1375961  27.8835297  94.7865391  40.3273201
  29.3622494  95.1091576  40.3442812  25.2558136  83.7036514  58.1521702
  24.5276141  84.2357922  58.4727669  25.9241748  84.3402195  57.8985739
  77.3726225  34.9192333  84.1119480  77.5262976  35.7382607  84.5829201
  76.6273451  35.1072049  83.5414600  37.7296853  81.0697460  14.0153015
  37.7976012  81.9027710  14.4818747  36.9167089  80.6804180  14.3373704
  41.5045977  91.0292053  67.4856091  41.8211269  91.2397003  68.3640909
  42.2532845  90.6183052  67.0533323  57.2383976  93.3992577  26.3585186
  57.5328445  92.4920845  26.4396429  56.9444323  93.6352444  27.2383618
  52.5203037  83.2421207  21.0897660  53.4056616  83.0379391  20.7886291
  51.9516468  82.6886463  20.5544806  78.5070658   3.9713046  47.5567532
  78.8207340   4.2403436  46.6933489  79.1677999   3.3535278  47.8698206
  77.5657272  14.2758477  46.6261959  78.0813932  14.7209597  45.9537411
  77.2522354  13.4786606  46.1990547  15.7475460  61.4064121  73.8883495
  16.6531134  61.6942644  74.0037632  15.8208168  60.5038929  73.5779858
  45.8338022  77.2645140  75.0264502  44.9214649  77.1459913  74.7621918
  46.0666609  78.1337547  74.7002077  92.0740414  13.1778800  41.8940306
  91.5090752  12.4319530  41.6924524  91.8374348  13.4226823  42.7886343
  42.4861717  92.4744892  35.4926515  41.9511986  91.9380760  34.9075985
  43.3881092  92.2814751  35.2367544  21.4199328  96.7141342  53.9036322
  21.8492055  96.0000706  54.3748713  20.6326890  96.8997478  54.4155216
  70.7309151   0.1450777  25.0526857  71.5702486   0.4603093  25.3879213
  70.3146076  -0.2744505  25.8056235  45.9662962   8.9677727  76.6865492
  45.9162521   8.3145308  75.9886932  46.8073416   8.8001084  77.1117067
  45.3367615  60.6861258   7.0819229  45.4470921  61.0054970   7.9775012
  45.2151537  61.4782238   6.5584451  40.4753017  50.2142000  85.4279232
  41.2520266  49.8304653  85.0208855  40.0910950  50.7609320  84.7425747
  65.3413773 105.6252956  31.7479777  64.9374485 105.6997395  30.8833814
  64.6208286 105.3808212  32.3287272  49.4457626  88.6857605  14.7970235
  48.5395241  88.4541035  14.5937991  49.3897533  89.5638180  15.1739919
  51.1017799 102.1852398  28.5313654  50.1945782 102.1854305  28.2260561
  51.2043810 103.0256462  28.9779305  65.4524374  14.3944335  71.1791325
  65.6440783  13.7773812  70.4729128  64.9571228  13.8813806  71.8176270
  34.4999385  84.0040016  41.3700151  34.2668986  84.8597622  41.7300272
  35.1129055  83.6354160  42.0061302  18.9119458  65.3645420  51.9886160
  19.7493434  65.5977106  51.5878296  18.4444809  64.8848057  51.3048315
  45.2110910  77.9071808  50.6157017  45.4565096  77.4644470  49.8033094
  44.5805502  78.5741186  50.3439617  43.7808847   3.8985363  27.7328658
  43.3388805   4.0412584  26.8959093  43.5218382   3.0144894  27.9928422
  54.3384266  81.9336605  81.2952232  53.6675262  82.2980213  81.8725967
  54.6495724  82.6827335  80.7869816  72.6285028  99.8192501  89.3577385
  71.9461775  99.7433567  88.6907291  72.5837421 100.7317352  89.6434212
  12.8879488  83.6966133  45.1021862  12.2199547  83.3409691  45.6883049
  12.4090207  84.2938805  44.5276070  67.1393919  86.0531712  30.7624078
  67.5264788  85.3828716  30.1992989  66.1989450  85.8774567  30.7322359
  27.6208758  99.1673183  27.8536987  27.9653168  99.5888805  28.6410236
  28.3568621  98.6591816  27.5125980  42.8299379  76.6230774  17.2309268
  42.6576614  76.7270613  18.1667364  42.0314407  76.2260580  16.8830574
  28.2264304 104.5479012  50.8943129  28.6662054 103.6991119  50.8455563
  28.0793953 104.6880913  51.8297100  71.4493942  76.6719913  35.9051371
  71.7484570  77.1694088  35.1439738  72.2332811  76.2220955  36.2203240
  67.4812889   2.7637565  27.8677726  66.7073250   3.3100975  28.0046153
  67.6033592   2.3083961  28.7008238  65.7863712  26.9836855  22.8247356
  66.5645027  27.0804572  23.3737111  65.5696917  27.8767180  22.5568271
  39.0527773  86.5258217  28.6551690  39.7946882  86.7310524  28.0862379
  39.2769384  85.6811810  29.0457702  33.8851714  99.1477585   1.3570720
  33.0309248  99.5612812   1.2326158  33.6949515  98.3479691   1.8473630
  17.6726913  82.1792221  22.7769113  18.2891464  82.6039219  23.3734393
  17.6417136  82.7562237  22.0138001  70.4517984   6.8898958  42.9813051
  69.8307705   6.2770098  42.5876999  70.4587030   7.6393473  42.3859024
  67.3070097   0.2815674  35.3331947  66.6566610  -0.2801642  34.9116111
  66.8372583   0.6862611  36.0624313 101.0566807  34.4304562  84.0090466
 100.1990795  34.3530846  83.5909843 101.2609863  33.5425973  84.3026447
 107.7258301  70.8143187  67.2107363 107.1419048  71.0662365  67.9261351
 108.3916187  70.2665615  67.6265812  56.8382072 103.0587196  29.9990630
  55.9757519 103.2068443  30.3869486  56.8014717 102.1609116  29.6691847
  84.5353413  25.3193069  38.6648774  83.7655926  25.4112744  38.1033945
  85.0489140  26.1097622  38.4985900  78.2713795  16.6517019  39.9027371
  77.5256824  17.1053064  39.5097899  78.2244635  15.7632554  39.5496178
  82.2720432   3.4466255  17.1450460  81.7493248   2.6693949  17.3423076
  82.3949337   3.8740635  17.9926455  71.9885492  21.2375546  78.3188486
  71.3466501  20.7947040  78.8738966  71.4622831  21.7055774  77.6706028
  73.0557060  10.6329799   4.0883541  72.8436613  11.0937095   4.9001396
  73.3529329  11.3210857   3.4930405  38.7393141  69.3536901  46.3267851
  38.8795161  68.4089518  46.2631607  39.4539261  69.6649981  46.8823481
  74.8161173  15.5606222  30.1223803  75.2294254  15.4748225  30.9814763
  75.5088758  15.9008920  29.5562196  65.2982807  98.9819241  20.5069685
  64.6852350  99.7019386  20.3587031  66.1618376  99.3693829  20.3642035
  73.9836025  10.3483570   6.7632937  73.0296230  10.4267633   6.7662770
  74.2000198  10.0242639   7.6375705  82.5646305  23.0556393  34.9451685
  82.4791050  23.3534098  34.0394902  82.2280502  23.7825799  35.4690957
  34.5707273  95.2821636   9.8366749  34.4825745  94.9221802   8.9541370
  33.6705780  95.3733826  10.1491523  33.8391232  83.9240551  46.6749620
  34.2374420  84.1621971  45.8377886  34.5690942  83.6042595  47.2051525
 109.0725422  62.4415350  88.6014462 108.2850742  62.9450130  88.8079262
 109.7902775  62.9590273  88.9665318  36.8821526  87.8932762  28.3535147
  37.6186705  87.2892952  28.4483194  37.2582960  88.7576389  28.5197091
  92.1819401  32.7246213  22.7778244  91.3114262  32.3666835  22.9519343
  92.7748394  32.1695828  23.2844162  46.8177176  82.6488400  23.2405257
  46.8330669  83.5639477  22.9602051  46.4757490  82.1723270  22.4840713
  59.3859005  15.8023596  32.9282141  60.1989126  16.2866998  33.0719423
  59.5222044  15.3467166  32.0975280  17.0614290  92.5464058  72.4525976
  16.7992735  91.6355610  72.3189068  17.1334147  92.6379395  73.4026909
  71.1737347  13.6571801  38.8600564  71.8111753  14.1670847  38.3601522
  70.7552290  13.0931497  38.2097077  40.4725504  63.2613611  31.8024945
  39.7186613  63.0255127  31.2618852  41.2310600  62.9745007  31.2939668
  37.6387334  81.2765312  32.0115423  38.1647801  81.0035515  32.7632022
  37.3397136  80.4567623  31.6180921  48.5357380  94.5513630  40.1600027
  49.0717888  94.7261047  40.9335327  48.6633492  95.3184795  39.6018982
  49.3822718  71.9888496  16.4276814  49.4149494  72.8432178  15.9973133
  48.7956285  71.4671087  15.8800781 102.2969151   8.8928825  24.3236423
 102.1954346   9.5043844  23.5942602 102.0740223   8.0389434  23.9530468
   0.6257865  99.4134045  25.5526400   0.8987543  98.5878181  25.9528065
   1.3139626  99.6106529  24.9172354  76.0923719   6.2051374  28.0459929
  75.5160189   6.9207394  28.3142519  76.6686487   6.5952724  27.3887777
  43.8417530 107.1387672  44.4156837  44.5071745 106.5620613  44.0403652
  44.1587210 107.3271561  45.2990103  13.9698505  40.2448034  92.2349739
  13.7627733  41.1446428  91.9826984  14.4880497  39.9047709  91.5055370
  15.2845609  51.8786812  89.4762039  15.5643570  51.6556168  90.3640079
  15.0880885  51.0354614  89.0680313  67.4218655   8.7392515  38.0273914
  66.6221189   8.8990027  38.5285139  67.3722553   7.8144366  37.7855468
  20.4185390  68.8469934  15.2948034  19.8288596  68.1425524  15.0259578
  20.2082014  69.5727634  14.7072244  80.2925491   7.1455199  30.2470660
  79.7835541   7.9321718  30.4428506  79.6402264   6.4479542  30.1829624
 107.0240688   8.0002218  21.0437417 107.4217796   7.2636968  20.5794334
 107.6032448   8.1536585  21.7902279  24.2241406  86.1054039  43.5451937
  25.1343369  85.8448982  43.4041023  23.7348175  85.2828217  43.5322046
  32.8204036  94.7561073  71.8060112  32.0124078  94.2585659  71.6802120
  32.6198006  95.6284332  71.4668274  39.6570182  79.9508619  12.3068404
  38.9700246  80.3558445  12.8362370  40.4596806  80.4000759  12.5717425
  68.3093452  13.4756935  21.6039586  67.5439024  13.4937775  22.1784210
  68.8094854  12.7133155  21.8952847  20.9707665  97.5013447  35.0266075
  21.7439413  98.0654621  35.0123262  20.2718115  98.0614662  35.3641772
  54.7322083  87.0298672  42.8778410  53.8986206  87.4436569  42.6539230
  54.8570538  87.2294044  43.8056517  14.0798593   5.6737614   6.3403445
  13.6613560   6.3809669   5.8494806  14.0463686   5.9627229   7.2522718
  41.7444324  88.1393433  21.1077452  41.3450050  87.4019909  21.5692639
  42.5271654  87.7702236  20.6987000  44.0619135  83.3031273  34.4738531
  44.4519949  83.8837242  33.8204241  44.1159630  82.4313259  34.0823412
  88.4914112  51.2026215  85.5362320  87.6469898  51.5301085  85.8459759
  88.8520050  51.9222689  85.0182438  33.7210345  71.7246675  30.0153589
  33.1505322  71.4357710  29.3031096  34.4193792  72.2132778  29.5796919
  69.6088409 102.1969604  66.6987753  69.4965410 102.6284122  65.8517361
  69.2101574 101.3344860  66.5829802  67.5411940  91.2343216  16.9537616
  68.0303717  91.3139534  16.1348641  67.4278498  90.2915287  17.0743310
  76.6304302  11.3132417  88.9840031  76.7669201  10.3859746  88.7896347
  76.3079739  11.6851068  88.1630421  33.3102345  13.7160492  26.1385608
  33.2791305  13.0244040  26.7995381  34.1173220  13.5467827  25.6525683
 113.7997055  37.3729801  91.9233322 113.5748482  38.1236053  92.4730873
 113.2331276  37.4593234  91.1566734  54.9380112  11.0017371  51.9903803
  55.8523130  11.2847817  52.0034695  54.9529076  10.1258039  52.3760605
  65.6473160  23.5803008  55.4276276  64.9574423  23.2589650  54.8470736
  65.9347486  22.8051233  55.9100342  28.7846208  60.3471661  23.7438154
  28.6877704  60.5148888  22.8064156  29.7302365  60.3549576  23.8920808
 106.6460133   4.5379350  85.2315712 106.8864727   3.6472386  84.9764824
 106.1459064   4.8734081  84.4875431  11.8969309  71.8459892  27.3616624
  11.9112432  72.4324656  28.1180167  12.6563704  72.1078253  26.8411541
  28.7352657  86.7806721  32.9802775  28.3472848  85.9095001  33.0624986
  29.0633750  86.9804573  33.8570118  22.0809579   5.4215330  16.2900281
  22.6265168   5.6305879  17.0482445  22.3007607   6.0931015  15.6443393
  92.1452141  88.9276886  42.1668673  91.6674614  88.1404972  42.4282312
  91.5583515  89.3719101  41.5549088  18.7346351  21.4059353  44.5453215
  18.5595202  20.6182003  44.0305042  19.5549059  21.2168336  45.0009823
  45.2360296   6.9735938  54.5100021  45.5582380   7.6583588  53.9239025
  45.9651041   6.3575870  54.5822620  16.9563782  53.8118839  51.5674448
  17.7936292  53.8275051  52.0311260  16.2981963  53.7915373  52.2621536
  52.7087450  92.1576118  21.2806225  52.6167011  92.9807091  20.8007598
  53.6536503  92.0120144  21.3274121  38.8438201  80.1410580   8.8282508
  37.9977727  79.9343538   9.2253786  39.1821671  80.8684731   9.3503845
  38.3187509  94.8887157   8.3567429  38.1101489  95.4288006   9.1189909
  38.3918452  95.5122471   7.6341778  63.6108589  80.9045887  31.7338872
  63.9785624  80.3607941  31.0372424  64.1192293  81.7148781  31.6988087
  48.3333492  83.1200123  33.2195067  48.1884003  82.4456882  32.5558043
  48.5780907  82.6329517  34.0063405  28.8087463 102.8978825  39.3218589
  29.5154715 102.9476357  39.9655175  28.9039469 103.6943626  38.7995768
  50.6381226   7.4325818  25.5441380  50.2277279   6.7613375  26.0893321
  51.5775442   7.3128659  25.6833816  57.1952295   7.8594548   5.9335399
  57.3468494   6.9162017   5.8742344  56.2432003   7.9464567   5.9815902
  38.3295274  79.9600792  58.3405972  38.8489413  79.6037292  57.6198673
  38.6417723  80.8595562  58.4389925  30.2725315  68.4202194  25.8263803
  31.0794091  67.9065323  25.7902741  29.6652150  67.8772545  26.3289595
  88.4694099   7.7577055  44.3444157  88.6228943   7.2400463  45.1347971
  88.3476543   8.6518615  44.6636200  35.1616216  80.8716965   8.5912991
  35.6404948  80.4328156   9.2943603  34.4993544  81.3948727   9.0428829
  39.5544624 105.4218578  27.6864886  39.8891711 104.5261574  27.7302909
  38.6081886 105.3296280  27.7973461  27.0405531  46.5844297  14.2938542
  27.5284243  46.2138748  13.5583937  27.5120044  47.3880148  14.5134377
  85.0836563 106.9268894   8.9692217  84.4585037 106.8367863   8.2499933
  84.5779037 107.3249626   9.6777236  28.7462330  74.6689272  27.8157592
  28.8545990  73.7198067  27.8762460  28.3205581  74.8079634  26.9697690
  88.4410477   1.4953981  39.1814280  89.2092896   1.5046343  39.7523475
  87.8731346   0.8214685  39.5549631  99.9834633   3.8709188  32.0410895
 100.1806164   4.7452080  31.7049599  99.1652870   3.6268285  31.6083741
  51.5373611  17.4533951  15.4168212  51.6611290  16.9951224  14.5856178
  50.8216333  16.9837022  15.8450234  20.6691051  97.0388508  15.7936132
  21.2061381  97.3055458  15.0474870  20.0286388  97.7434158  15.8917308
 104.3460751  22.6585102  40.7326317 104.7157097  21.8257117  41.0259724
 104.8401070  23.3224797  41.2135744  29.2851639  91.1063766  48.6411095
  29.3468785  91.9453335  48.1844139  28.9341259  91.3283825  49.5034981
  11.7796504  85.4487801   7.8314406  11.9759190  84.8779583   7.0885569
  12.4327290  86.1464214   7.7765346  40.2337027  83.4111118  82.0225143
  39.8589706  82.9911995  81.2482548  40.9847546  83.9019108  81.6889381
  67.9508591  75.7240057  56.4789629  67.2834349  76.0284090  55.8640528
  67.4974918  75.6771374  57.3206806  34.8845515  -0.1497963  26.8661571
  34.8342642   0.7617924  27.1537495  35.4133162  -0.5834320  27.5359392
   8.2021987  90.6243801  27.6346612   8.6873460  91.3838196  27.3119926
   8.6918932  90.3371048  28.4053111  47.1668386  90.5023193  38.1063128
  47.2227430  89.5582867  38.2543802  47.3750210  90.6119728  37.1784830
  79.0742445  21.9929814  61.2520552  79.8109198  21.8202949  61.8383312
  78.3189774  21.6081095  61.6966629  24.9826169  79.3809366  79.9076223
  24.2734432  79.0238428  80.4422092  24.5378280  79.8322439  79.1901827
  24.4755244 107.1172428   7.7267063  24.8799109 107.8854847   8.1298357
  25.1131535 106.4151955   7.8562701  97.0434284  11.3368022  26.0501337
  96.6024685  10.5783737  25.6672907  96.6641331  12.0890212  25.5956745
 112.2219563   3.1017444  45.8373547 113.1010628   3.2442865  45.4865265
 111.7188740   2.7679333  45.0945854  37.8133249 100.4734898  22.0715761
  37.7970266 100.8973694  21.2135053  37.9213810 101.1938477  22.6925659
  28.2050347  66.0977650  12.4517834  27.7059460  65.6894159  13.1591690
  27.9190588  67.0112467  12.4532437 105.0833225  33.7430120  85.7713985
 105.9466934  34.0546536  86.0428905 104.8321819  34.3267226  85.0555515
  80.1024055   8.3116776  18.2235014  80.9714317   8.0233788  18.5026395
  80.1586437   8.3520430  17.2688079  58.2363033  15.5549622  77.8290892
  58.8088369  16.3218415  77.8108358  57.3821926  15.8870900  77.5526524
  75.7801771   3.7665716   6.0846585  76.1604929   3.0204380   6.5482074
  74.9075842   3.8656348   6.4654464  45.0950050  84.6732140  37.2806501
  44.1672945  84.4457340  37.2186852  45.3758717  84.7830677  36.3722038
   1.2217043  26.8561268  83.6760139   1.0398602  27.6306796  84.2082119
   1.6310108  26.2392926  84.2828178 109.8647976 100.5711460  39.6830797
 109.5432091 100.0832176  40.4411936 110.7336998 100.2066326  39.5146418
   5.9520608  94.8279667  15.5371773   6.0156137  94.8412609  16.4921737
   6.6712904  95.3860855  15.2414775  29.4165015  43.1512928   6.6936535
  30.2976584  43.4056377   6.9677067  29.0612316  43.9341831   6.2728155
  18.4426260  70.5920792  14.5136988  18.2694137  71.5022278  14.2731607
  17.8802514  70.0796509  13.9328527  38.0692387  95.5178547  25.7097793
  37.1368265  95.7090855  25.6084514  38.3607292  96.1083317  26.4044738
  18.4376025  10.5401969  86.8181705  19.1914153  10.2911699  86.2833977
  17.9586673  11.1694038  86.2787724  59.6576643  18.0987406  58.8325500
  59.3924904  18.4022665  57.9643393  60.4975986  18.5296941  58.9907360
  98.6851978  56.0809708  91.7252064  98.3827782  56.3730431  90.8652782
  99.4188499  55.4962540  91.5351963  93.6073208  18.8602376  17.1931267
  92.9919720  19.0891683  16.4965880  94.2356491  19.5822501  17.2044790
  20.5488634  97.4734497  19.9218357  21.2047338  96.7885971  19.7913289
  20.0796032  97.5175667  19.0887213  82.4703217  40.8972025  84.1859627
  83.1908703  41.0181570  84.8043633  81.6893196  40.8400774  84.7364044
  22.9758716  95.2881527   5.4913259  22.9630542  96.1985683   5.7866412
  22.2754455  94.8653126   5.9881568  48.3037996  78.5590601  34.0226603
  48.6309052  78.9259624  33.2013106  48.2926416  77.6133966  33.8749075
  84.1414833  82.2379494  20.2928162  83.3291149  82.0432663  19.8254859
  83.9635181  81.9842148  21.1984539 110.1982975  17.2798216  58.9132023
 111.0241508  16.8029749  58.9957905 110.1773071  17.8565133  59.6768856
  83.9476585   1.3058391  10.0483227  83.0676079   1.2255715  10.4161704
  83.9204597   2.1141939   9.5364094   4.9369332  63.8131332  81.0993862
   4.2129880  63.5271311  81.6564655   4.5131353  64.2589378  80.3659821
  93.1662941  15.9800613  28.2808185  92.3833656  15.6785417  28.7416244
  93.1986713  16.9209182  28.4539390  30.8793378  85.3588009  39.4272041
  30.6312823  84.4705009  39.6833706  31.6627455  85.2430630  38.8895154
  37.3942900  69.3762684  25.3454208  36.9667220  69.9949026  24.7532105
  36.8288612  68.6040020  25.3340554   2.0650329 101.0677528  56.6007471
   2.8832835 100.7522774  56.9843769   1.7563561 100.3390598  56.0622740
  63.4696436 102.0311165  22.7943373  63.9399004 101.2036037  22.8958988
  62.7671480 101.9885731  23.4431243  89.6061707  10.9946942  15.8182514
  89.7541904  10.7599020  14.9021769  89.0007305  11.7351532  15.7809031
  84.5310497  86.1999130  42.9804802  84.0977573  85.3558540  42.8538322
  85.3642178  86.1133385  42.5172520  37.0700479  54.3281174  92.9562187
  36.4999604  53.7240171  92.4805164  37.7008796  54.6277761  92.3016262
  55.2399063  14.3352795  34.9442697  56.1154842  14.6804821  34.7698092
  54.7708416  15.0651968  35.3485346  11.8838191  45.3385115  87.8803253
  11.3494551  44.7062826  88.3609295  12.2326767  44.8430252  87.1393681
  68.6128807   4.7958502  50.6119585  69.2906713   5.2763158  51.0873365
  67.7914095   5.1974541  50.8950329  74.6257782  29.5518780  22.0096898
  75.3405428  29.9568677  21.5184355  74.7370338  29.8743081  22.9040575
  62.8672457  90.6655312  20.9941244  62.4014616  90.8317757  21.8136621
  63.7492847  90.4129219  21.2669277  23.9681482 102.1522713  33.8114476
  23.8617802 102.2365189  32.8639126  24.9144697 102.0911789  33.9417386
   8.8136244  98.5972977  44.8188162   7.9793257  98.7471485  44.3741560
   9.3753380  98.2072830  44.1490364  47.8130913 104.6988297  63.1302881
  47.0063734 104.2209721  62.9376745  48.4258938 104.0252018  63.4251499
  55.8160591   9.6541214  31.2816596  56.0746002   9.8632747  32.1792340
  56.5978384   9.2623532  30.8923388  11.8014157  96.3183594  34.7768927
  11.2027669  96.1986637  34.0396500  11.2729883  96.1180592  35.5494714
  64.1025972   0.9170094  34.7801137  64.3067169   0.7167503  35.6936049
  64.3396473   0.1223905  34.3019724  93.1264400  91.8344688  19.4031191
  92.4010181  92.4578094  19.4410968  93.8356495  92.3178387  18.9793193
  86.7329407  20.1421165  47.3373270  86.4413738  20.9325457  47.7916861
  86.6327763  20.3492188  46.4081860  93.1953430  24.7136116  24.1830397
  92.9896736  24.0716958  24.8626542  93.8109398  25.3158689  24.6008492
  84.7170258  16.4985740   9.6023095  84.0111446  16.2383401  10.1941204
  85.4869175  16.0324538   9.9282420   5.8042192  32.0839047  75.8529568
   5.6887215  31.4027548  76.5154743   6.0049099  31.6045761  75.0490952
  32.5476170  97.9771805  16.1239016  32.2579932  98.0832100  15.2177513
  33.0436134  98.7740421  16.3116145 111.8891907   0.5407684  52.6306295
 112.2268677  -0.3255953  52.8578281 111.5662098   0.4445601  51.7347145
  26.7210698  10.0488329  56.8191051  26.3637662  10.0029421  57.7059317
  27.4566793   9.4364017  56.8252754  67.3328495  25.1131463  17.7220893
  66.8116951  25.9143662  17.7738118  66.9302893  24.6108937  17.0136273
  75.5804300  10.7971108  52.2047710  75.0984526  11.4693785  52.6864243
  75.7535982  11.1923814  51.3503695  76.0233402  98.8614750  25.3031230
  76.8596029  99.0514278  24.8779011  75.6716824  98.1153870  24.8174024
  59.0151787  83.9004326  15.9491408  59.6900702  83.5336113  16.5202737
  58.9566946  84.8202229  16.2075961  45.5814266 104.2772579   7.2833949
  45.3654957 105.2096176   7.3011529  46.4319277 104.2200470   7.7188301
  18.3140039  94.6109962  17.9281354  19.1160405  94.3410873  17.4807882
  18.1541741  93.9200211  18.5709715  78.5668612  94.1132736  40.0485086
  77.9998636  94.5068359  39.3852925  78.1905603  93.2465553  40.2015781
  69.6707678  80.1845074  13.3435249  70.3531265  80.2694607  12.6776385
  70.0489330  79.6003771  14.0008068 113.3858585   5.1192403  17.7100646
 113.4548759   4.1757989  17.8563082 113.9396286   5.2844703  16.9469917
  73.1364107   5.9931451   2.2716899  73.9905548   5.7876700   2.6517588
  73.3350086   6.2947404   1.3852187  29.1390586  96.6552734  51.4100075
  28.4719563  97.3391342  51.4694929  29.6800375  96.9126892  50.6634760
  78.0501223  16.8058538  35.6073904  77.1162081  16.6975141  35.7871103
  78.2605028  16.0980535  34.9983001  68.7795353  97.0909595  16.7896652
  68.2509041  97.8687000  16.6110837  68.8270378  97.0477581  17.7447093
  89.2731762   5.9708083  26.7671251  88.4014225   5.7633966  26.4305806
  89.4557571   5.2783000  27.4022079  70.5924845  25.2691555  28.6088634
  70.3579378  24.6553063  27.9128718  69.7970152  25.7811928  28.7547326
  42.3848248 103.2722187  27.5865030  42.2046661 103.8808060  28.3030128
  43.2530785 102.9206657  27.7834463  86.6733837   4.5530960  48.8127565
  86.4482975   5.1894027  49.4914913  85.8290100   4.2534840  48.4758568
  82.3260212   9.1253328  30.3457808  81.9335175   9.9956632  30.4142976
  81.5801430   8.5330319  30.2505207  28.2042933  90.6237602  35.5230856
  29.0007567  90.9019947  35.0709105  28.3966994  90.7573223  36.4511895
  82.5956249  26.7074180  28.0697298  83.0512905  27.5468731  28.1322765
  82.7283287  26.2985516  28.9249778  91.3700581   6.8435210   4.4196162
  91.5168953   5.9077853   4.2815244  91.6332340   7.2515613   3.5947073
  91.7637539  27.9041004  45.0797224  91.4905930  28.3990216  45.8521652
  92.5401878  28.3650875  44.7621298  75.3500891  13.4505939  24.9091864
  74.5631599  12.9122281  24.9936557  75.1764584  14.0116489  24.1533422
  84.4687176  32.2931886  22.6778555  84.6805859  31.3879752  22.9057336
  83.6107826  32.4453974  23.0740905  45.7155704  55.4812622  59.9802589
  44.8160601  55.2144098  60.1697302  45.8318186  55.2880430  59.0499973
   7.5294238  68.6669636  87.6496792   7.9758376  68.3441353  86.8669033
   8.1130356  69.3413591  87.9972649 105.3452301  13.2756853  21.0703731
 105.4223061  13.1733787  22.0189643 105.4914284  12.3962176  20.7219553
 100.1457596  50.3076792  84.5307636  99.4440556  49.7518873  84.8697948
  99.7360611  50.8061171  83.8237000 101.4984989  22.4999571  52.5656605
 100.6023502  22.4711704  52.9008150 101.8851185  21.6697454  52.8440571
   2.0869669  11.9746268  42.9118299   1.8611823  12.7107775  42.3432016
   1.6002920  11.2341988  42.5496864  97.8576851  25.6219983  44.7315693
  97.6361656  24.7060347  44.5637226  98.2324600  25.9326816  43.9073992
  82.6295280  13.5922015  36.0453582  82.0959282  14.1042674  36.6530442
  82.0796299  13.4938860  35.2680683  95.8277512   9.4037795  24.3602681
  95.8635235   8.4976017  24.6665263  95.7695198   9.3324769  23.4075046
  82.2406673  33.8450909  48.2448864  82.6667404  34.5777869  48.6896944
  82.9635811  33.3232689  47.8965616 111.6914177  32.0176530  49.5942497
 111.6586971  31.0795712  49.4067192 112.4065399  32.1112967  50.2235842
  75.7625103  19.0392375  23.6525512  75.7739305  18.5078418  22.8564858
  75.4998207  19.9103594  23.3552766  71.6106701  14.0914333  44.1033983
  72.3576736  14.3211937  44.6560574  71.3110399  14.9273443  43.7460375
  26.8823338  49.9524260  38.6732125  26.6715312  49.0481138  38.4407902
  27.6787329  49.8849249  39.1999245  67.4583721 106.3890076  25.3237653
  67.9313898 107.0603943  25.8154297  67.9680920 106.2759304  24.5214963
  70.5304480   6.8427384  36.8673444  70.0462914   6.5434945  36.0977483
  71.4510155   6.7395157  36.6262436   4.4571295  25.2171516   7.6366997
   3.6289948  25.0846004   8.0980611   4.2589453  25.0078940   6.7239201
   2.6646867   1.0716885  16.7554700   3.4821379   1.4644702  17.0616198
   2.9395863   0.4130795  16.1175859  87.6623440  14.3595457  43.1357956
  87.8535938  15.2707398  43.3580112  86.7462444  14.3678629  42.8584290
  77.0364809  74.7645473  30.8993673  77.3073244  75.5237484  31.4155912
  77.2328472  74.0125799  31.4581323  93.1813908   0.7320066  28.7463713
  93.8865185   0.2741112  29.2039204  92.3816490   0.4346424  29.1802120
  79.5355368  33.4728122  19.2318356  79.9772644  32.8341222  19.7914636
  79.4534922  34.2541504  19.7786522  88.4913063   3.0221742  29.6359825
  87.8437233   3.7265363  29.6632576  88.6229420   2.7821898  30.5532122
 103.8361073  17.3680305  48.8451242 103.0053329  17.3804653  48.3698416
 103.7103653  16.7113519  49.5301008 109.9280071  12.1311224  25.7306790
 109.7649956  11.4941561  26.4263320 109.1017246  12.1771872  25.2496719
  80.7816887  12.9264224  12.4663317  80.7324696  13.5269547  11.7225778
  80.5728054  13.4691548  13.2266223  59.7028446  77.3567629  45.1006842
  60.0061655  77.0830441  44.2350626  59.4334078  78.2676983  44.9830770
  46.5491962  87.1950722   8.6304891  45.6990576  87.5004196   8.9471179
  46.8076277  86.5167522   9.2544574  81.2536240  99.1532803   4.1283020
  80.7867718  98.3178711   4.1087723  81.5315723  99.2510986   5.0390226
 104.2270184  21.2123728  23.9133263 103.4275341  20.9207606  23.4751272
 104.0624619  22.1311927  24.1252851 106.5045929  23.5454464  34.8588753
 105.7851696  24.1173291  35.1264763 107.2757530  23.9123726  35.2912045
 101.8306446   8.8079542  26.8615246 101.9352341   9.0281773  25.9358931
 101.8710041   9.6503872  27.3141932  84.0423107  20.2995157  62.3653412
  83.2357121  19.7921216  62.4558210  84.3459225  20.1103759  61.4774895
  11.7350876   0.7207965   8.7481034  10.8601737   0.3329984   8.7673479
  11.5793955   1.6570911   8.6242306  96.3130283  10.4434955  36.0809183
  96.6059494  11.2766147  36.4501572  96.5730667   9.7893935  36.7295814
 101.7742157  17.0230007  22.4965525 101.9263458  17.9356658  22.7417707
 100.8553219  16.8664944  22.7141786  77.8154802   5.6771630  36.1417937
  78.0306864   4.8841861  36.6328216  78.2183313   5.5442691  35.2837229
  12.9300010  85.4889679  14.6797502  12.6616812  84.5729733  14.7518492
  12.1083212  85.9799576  14.6799016  90.6822014  43.4804821  68.7524652
  89.9349880  44.0322447  68.5212326  91.4280987  43.8922882  68.3162498
  95.5906010  15.8222210   7.8727031  94.7553253  15.6361961   8.3015943
  95.5106068  15.4198718   7.0078635 101.2606812  37.6304698  84.6472168
 101.6578674  38.4754825  84.4364357 101.6856098  37.3626876  85.4620647
  74.7491932  17.7539170  21.4432478  74.8942852  17.0743644  20.7849240
  74.1042948  18.3388698  21.0455489  42.9372406  21.1074686  28.6019707
  43.6459827  20.8361697  28.0186105  42.6440525  21.9472003  28.2482457
  95.2632618  98.7171745  61.3397932  95.7650089  98.1360435  60.7681561
  94.3498611  98.5552502  61.1037445  32.8645062  28.5316253  43.7484360
  32.5885653  28.1474972  44.5806217  32.3631263  29.3442845  43.6818123
  79.6400833   6.3881809  49.2359018  80.0725269   6.6387397  48.4195375
  80.2836418   5.8450335  49.6909332  52.7320099 104.8043919  20.5459380
  52.0404959 105.3968430  20.8409595  53.5417843 105.2053165  20.8617806
  66.6611052 104.3208790  28.7431359  66.2864256 105.1220322  29.1092157
  65.9755516 103.6624813  28.8560915  86.5560436  18.6912107  12.6280773
  87.0831585  17.9587841  12.3088169  87.1975231  19.3503439  12.8931677
  40.8590603  30.8908677  40.4771376  40.4475689  30.2093005  41.0085297
  40.6962585  31.7015219  40.9593964  93.7021160  85.7076168  15.3089428
  94.1237831  86.3717842  15.8542025  92.9151344  85.4625416  15.7955956
 108.4463215  10.3415740  14.4739759 108.8255596   9.5153147  14.1744745
 108.6984444  10.9774637  13.8044155  23.1287241  17.1743453  29.4782376
  22.3406959  17.5190830  29.8982358  23.8314843  17.3552620  30.1024413
  76.3724613 101.1377048  30.7555270  76.6389799 100.2239323  30.6544685
  76.0073566 101.3763428  29.9034810 107.4978542  51.4238596   1.3581769
 106.7481709  52.0127010   1.4445511 108.1965351  51.9756222   1.0065546
  93.9583778  29.3953276  48.9574146  93.8886261  30.1863980  48.4230232
  94.7182274  28.9333034  48.6033058   6.5608674   1.3329446  47.9098701
   7.1715999   1.4770763  48.6326838   5.8152694   1.8989278  48.1098127
   7.5191993  37.2927713  38.8709784   8.3729386  37.5211835  38.5032988
   6.9179320  37.3399186  38.1276846   5.5451685  39.1220307  26.1325240
   5.3215951  38.6087847  25.3561068   6.3136977  38.6828494  26.4968204
 112.6503468  54.0566015  21.1911631 113.5400486  53.8765812  21.4949036
 112.7009964  53.9737558  20.2389026  36.2038374  37.7436066  14.4996774
  35.6750536  38.2288241  13.8662875  35.6395626  37.0234132  14.7810054
   4.7645655  28.7936497  29.6832037   4.4016835  29.6404862  29.4235563
   5.2591759  28.5002589  28.9180160  13.8074028  31.1899805  27.6099253
  12.9156840  31.4535427  27.8370905  14.3648040  31.6978288  28.1995249
 100.7853413  33.9138246  52.4164963 100.0364208  33.9712048  51.8231487
 101.1540031  33.0456138  52.2536039   7.8129876  43.0985403  36.7796564
   6.9713849  43.3768082  37.1409130   8.3172446  42.8114414  37.5409269
  44.7021341  36.3577247  11.4753735  45.3879929  36.0064650  12.0432127
  45.1475286  37.0141912  10.9397411  42.8192711  34.3275905  24.9793744
  42.4749041  33.8874149  25.7564807  42.7959013  35.2584267  25.2012539
  33.8840079  42.5081205  33.0200887  33.0429363  42.0918751  32.8314972
  34.3899012  42.4016809  32.2144985   5.0645870  40.6838417   6.6734064
   5.3707707  40.3060102   5.8489525   4.3245450  41.2369680   6.4231592
  91.5473270  33.0227613  28.1165576  92.4427509  33.2147503  28.3951259
  91.0031891  33.2934594  28.8560629  15.9670937  22.7553368   9.6551496
  15.0655007  22.4442410   9.7362727  15.8860922  23.7055278   9.5726514
  32.5855398  47.9787016  25.9184074  33.3483434  48.5207224  25.7169676
  32.1989417  48.3875799  26.6927409  46.5799093  93.0148220  92.5979614
  45.8351564  92.4515247  92.8083706  46.5081930  93.7458801  93.2116795
  93.3004379  26.5232325  20.1992631  93.9392853  26.7470622  19.5224941
  92.8120804  25.7858706  19.8331583  99.1342926   9.8770076  29.6927476
  99.7268200  10.1753950  30.3827548  98.2582951  10.0154042  30.0528860
  10.3194070  62.7512169  38.0569100  10.7385647  62.8002644  37.1977615
  10.7628834  62.0271254  38.4987807 101.8544579   7.7332491  20.9971189
 101.4584732   6.8916225  21.2231493 101.1120796   8.3307022  20.9068489
 107.3466110  25.2386045  27.7415681 107.7073765  24.7439861  27.0057464
 107.9701900  25.9515786  27.8796101  19.1184998  47.5200653  44.0568972
  18.7509251  46.9984388  44.7703600  19.4675338  46.8739223  43.4429741
  41.4512253  38.3051038   8.6772186  41.8735838  37.4498677   8.5971278
  41.4537525  38.6577535   7.7873516 102.1730328  28.4346199  21.0625625
 102.0285130  27.9325032  21.8645763 101.3629436  28.9297390  20.9407163
  85.7691479  12.1007490   6.7118514  85.1241302  11.9795370   7.4086201
  85.2710056  12.4795687   5.9875715 105.0271034  27.7603364   9.5260006
 105.3559780  28.6582828   9.5679724 104.3821812  27.7742815   8.8188148
  99.6667862  19.3592107  35.2515602 100.0925064  19.8500776  34.5486784
  99.6878433  19.9508882  36.0036945  13.1801856  45.4138851  35.7799840
  12.4088597  44.9648714  36.1259222  12.8423405  45.9550190  35.0663543
  20.0244403   5.3248620  29.9620056  19.8384857   5.3720725  29.0242290
  19.2082226   5.0126958  30.3526139  85.6321526  35.3029537  24.5072913
  85.2940464  35.4496169  25.3906989  86.3009453  34.6268415  24.6159816
   4.7561693  48.7956905  29.2831421   5.2732050  48.9028406  28.4847546
   4.7152451  49.6739149  29.6616602  53.9403171  34.0580671  -0.0944510
  54.1582030  33.8514250   0.8144197  54.7637481  33.9462393  -0.5695239
 100.2046585  51.0373926  30.1607561 101.0311127  51.4934444  30.0019312
  99.6355247  51.3162661  29.4434428  40.7480145 106.0362339  89.2729378
  40.0723314 106.6640949  89.0170574  41.1898184 105.8126831  88.4537506
 105.0874233  52.7004004   4.4610438 105.1705551  53.5087490   4.9669027
 105.6221199  52.0643997   4.9362674  33.6645317  69.4432878  31.6256452
  33.1558609  68.9964581  30.9490132  33.8415074  70.3097057  31.2592697
  12.7698970  86.8537426  30.6863880  13.1722629  87.6379585  31.0596681
  13.3622074  86.5932369  29.9810243  65.9915304  74.8512268  89.3264198
  65.5334330  74.7422075  88.4930611  65.3863192  74.5009089  89.9800396
   6.3496143  53.7700081  28.0827355   6.3102090  53.7221861  29.0379262
   5.5036116  54.1370201  27.8261948  33.2902002  21.3291717  15.9977996
  33.7093472  21.9936943  16.5445685  33.0107069  21.8043232  15.2152741
  13.9155614  28.6817741  32.4796915  14.6395385  28.3360028  33.0017352
  14.3128026  28.9060688  31.6381907  20.6589174  39.5881987  20.9310985
  20.0040245  39.3494630  21.5871096  21.0528421  38.7552547  20.6717515
  45.8706284  89.9244308  75.3425455  46.2196875  90.7708359  75.0632763
  45.1058102  90.1444626  75.8744001  24.4726205  43.8648415  13.2686663
  23.5380197  43.8584280  13.0619967  24.8757577  44.3371964  12.5402462
  31.2415600  67.8707218  32.0597076  31.7513537  68.3594370  32.7058482
  31.2861776  66.9619656  32.3570371  53.1037283  70.0375700  62.8762007
  52.6345968  70.8690834  62.9450035  53.8925600  70.1632643  63.4036255
 111.7305183  49.7452021  25.0979733 111.7201042  50.7022381  25.0836492
 112.6549149  49.5143366  25.0062037 108.2489109  44.7421169   6.0444003
 108.9681625  44.2418957   6.4300013 108.0538368  45.4192877   6.6921759
   0.5407154  66.0425186  49.7167587   1.2271318  66.5839291  50.1065540
  -0.2014687  66.1293459  50.3149700 101.4626789  50.3474379  34.4145274
 101.9653511  49.7345352  33.8779616 100.9488106  50.8520317  33.7840104
  31.0018730  41.6871595  33.3778739  30.9427261  40.7371092  33.4785867
  30.9436059  42.0267677  34.2709041  52.6574850  62.1394205  89.0218353
  52.8403759  61.2030029  89.0987015  52.3619890  62.3981857  89.8947334
  18.7011755  34.7075987  10.6141031  18.9626408  35.0564814  11.4662468
  17.8125894  34.3795371  10.7520247  24.0055442  35.2656364   5.9927785
  23.1910443  35.6754518   5.7014459  24.2701554  35.7761288   6.7580295
  26.7542696  28.9947200   5.6935716  26.4777184  28.9012384   4.7819731
  27.7105474  29.0075970   5.6536388 113.7277317  56.3988495  39.2186117
 112.9170990  56.6740417  38.7903905 114.2476273  56.0060835  38.5174131
 107.4294853  28.9736509   2.3548166 107.2249222  29.8460174   2.0181178
 107.6705933  29.1203976   3.2694542  16.9124174  27.2070098   0.5639274
  17.0731020  27.7543521   1.3325813  17.7615261  27.1551108   0.1251184
  26.8736887  38.8216472   4.0919808  26.5889955  37.9082370   4.0626025
  27.3505616  38.8974261   4.9184677  13.8549626  56.6101551  64.4460201
  14.0890694  57.3467159  63.8813066  13.3073914  56.0506582  63.8952351
  83.2635307 101.9841003  40.3170538  82.3332310 101.8251705  40.4767942
  83.4144020 101.6534901  39.4315219   4.5391181  32.0331454  26.2420654
   4.4983834  32.8807259  25.7991409   4.1176870  31.4250350  25.6347513
  27.7266860  67.5242853  20.4692149  26.8831873  67.2521162  20.8306956
  28.1678224  67.9644489  21.1957741  39.4542718  54.1712093  49.0681887
  39.0073037  53.7856293  48.3146763  39.7004867  53.4215212  49.6100187
  15.7491255  44.9348783  27.4309230  15.1449978  44.7853470  26.7036653
  15.7430673  45.8838415  27.5560832  19.9793077  73.1188679  26.2418795
  19.5363224  73.7383223  26.8217659  20.0333452  72.3103857  26.7514563
  93.2245922  70.0503492  24.9586892  93.3222389  69.5205259  24.1674972
  94.0962505  70.0530815  25.3542042  89.0766430  23.1333160  31.3540077
  89.7276020  23.8335443  31.3074470  88.6093330  23.2948327  32.1736240
  73.2514286 101.7647743  53.7460232  72.8148127 101.0443401  53.2915211
  73.9168119 101.3388062  54.2864418  12.1344674  12.6906180  24.3223834
  11.4070678  12.9999101  23.7825131  11.7993236  12.7250588  25.2183318
  76.2257624  15.1463413  91.1455441  75.7528782  14.7968221  90.3902626
  76.2909365  16.0857081  90.9735680   7.3334146  12.3164606  23.9562297
   7.7825999  12.6405489  24.7368908   7.2132212  13.0928397  23.4094000
  94.0553951  26.1526585  29.2798281  93.8865280  26.2638927  30.2154255
  94.7767258  26.7536616  29.0935254  14.3215001  83.2068062  11.0024548
  13.9312112  83.1318092  11.8732476  13.8286257  82.5868797  10.4648757
   8.0031639  41.1747313  13.3380175   8.0130577  40.5470467  12.6154220
   8.3504367  41.9820690  12.9587495  54.4582462   2.6293626  18.1938350
  55.2027607   3.1231621  18.5374820  53.6895037   3.0931050  18.5258126
  21.5509486  50.8028412  11.7237377  21.6638947  51.6568756  11.3064885
  20.6470275  50.5574989  11.5263414  53.7284040 103.6195374  83.0561352
  54.4647932 103.8462448  82.4881840  54.0110731 102.8251553  83.5092163
  15.2487755  55.4436970  28.5290289  15.5552626  56.2475920  28.1094503
  15.0499904  54.8544884  27.8013253  34.3948126  76.5337038  37.5605559
  33.8294125  77.2761536  37.7734542  34.0056896  75.7945538  38.0279684
  32.3314977  69.4113016   2.3390463  33.2315803  69.2210722   2.6034173
  32.0387602  70.0847244   2.9530808 111.3387394   2.9905999  87.3362732
 110.5160999   3.3385050  86.9921017 111.1931324   2.0464289  87.3960304
 104.0368366  93.8398266  50.5213976 104.2101574  94.0159702  51.4461470
 104.7243404  93.2266426  50.2614260   3.5086712  65.3608894  11.1495578
   2.8879595  64.8555756  11.6745389   3.4198752  66.2579918  11.4713621
 106.3692379  21.7500448  80.0264549 106.5498734  22.6358199  79.7118139
 107.2318459  21.3419914  80.1015759  53.4306002  50.3438711  14.7381115
  53.1120539  49.9482059  15.5494130  53.7368917  49.6033382  14.2146361
  43.9370394  21.9652104  18.1291974  43.8873243  21.6764355  17.2179520
  43.8556242  22.9178405  18.0833411  49.9262810  61.9108391  22.1582127
  49.4325972  62.6925135  21.9102359  50.0921488  62.0193815  23.0946636
  24.9143696  70.3965950  20.7635570  25.4966044  70.1020288  21.4638877
  24.1900063  70.8257484  21.2189198  27.9615355  35.6802320  52.9760790
  28.4705257  35.3081489  53.6962938  27.9746795  36.6238904  53.1359816
  95.5923653  55.1072073  27.5414157  95.3601265  55.8765221  27.0213604
  94.7647476  54.6421242  27.6638436 110.7737350  42.8424406  26.3432765
 111.5769672  43.3473301  26.4702559 110.2892971  43.3271313  25.6749749
   2.6608032  44.6930790  54.7812939   3.4689847  45.1928759  54.8965168
   2.8779358  43.8126278  55.0877094  39.3092442  98.0907917  78.8926172
  39.1942453  99.0266323  79.0575457  38.6187816  97.8711987  78.2670975
  15.7827938  76.6917849  23.5583282  15.2584553  76.7919397  24.3528533
  16.1061394  75.7916689  23.5966301   1.9790059  70.0648928  15.9905827
   1.6119345  70.9441757  16.0819864   1.2809426  69.4817495  16.2887108
 101.5853691  56.8868160  71.0291862 101.8609047  57.4316025  71.7664242
 101.6818714  55.9886742  71.3458300  26.2465191  38.7759304  36.5139842
  27.2030210  38.8031650  36.4896083  26.0104203  39.3214750  37.2642326
  32.4851918  38.3172035  14.4441879  32.0024467  37.8443170  13.7662745
  33.2829022  38.6147642  14.0067554  24.0843439  41.4397430  50.0539732
  24.1416121  40.4997683  50.2254343  24.3552327  41.8499613  50.8752966
  19.2499936  71.1494112  34.8285699  19.5064056  70.8196259  33.9673376
  19.8713934  70.7456064  35.4344058  19.6509409  52.2151661  21.4537430
  19.8619604  53.1471634  21.3982320  20.1086664  51.9122505  22.2379375
  32.9915648  79.9012811  92.7751173  33.5965377  80.0210650  92.0430718
  33.5544806  79.6822578  93.5176653  49.5962906  92.4050999  84.3368912
  50.0234461  92.0840454  83.5427284  50.1777172  93.0933857  84.6600533
  27.5440812  74.0290785  77.8637123  26.6245723  73.9866209  78.1262636
  27.7763629  73.1236601  77.6575851 100.8551216  62.6995325   1.0810768
 101.5386868  62.0501947   0.9157782 101.1982155  63.2308912   1.7995301
  51.4568377  96.7967892  87.2400570  50.5715036  96.6036510  87.5484562
  51.8387985  97.3372364  87.9316235  30.7036257  18.8699937   9.5605248
  31.0479593  19.2490423   8.7518299  30.3991961  19.6228337  10.0672662
   4.0206975  76.9243813  10.3333151   4.4580421  77.6899338  10.7060027
   3.5885420  76.5085983  11.0793686  51.4906263 103.4142971  81.4546585
  52.2619915 103.6138821  81.9851208  51.5674829 102.4797726  81.2623310
  73.7075520  90.9823322  26.5406227  74.1382742  91.4528275  25.8269358
  72.7743340  91.1496639  26.4089561  75.9542894  55.6862688  17.2785878
  76.4503622  55.0135040  17.7449954  75.5695534  55.2261734  16.5325856
  88.9915180   4.7832164  92.7821445  89.1640949   5.5707669  92.2661877
  89.6814919   4.1719443  92.5242233  51.3725471  28.1590486  33.8247466
  50.4845047  28.5161304  33.8347244  51.8832254  28.7722731  34.3533254
  16.1578536  52.5518799  43.4517193  17.0685267  52.6161385  43.1640100
  16.2150443  52.3891783  44.3932581  21.9731593  47.7837372  11.9114900
  22.7565145  48.2698250  12.1689796  21.6775513  47.3612833  12.7179527
  38.6414599  61.0701370  10.1972950  38.7023687  61.9871330  10.4649472
  39.5500779  60.7962847  10.0721884  29.3315697  28.8167167  18.2966185
  28.5929585  28.5562634  17.7462995  28.9846206  28.7963772  19.1884959
  57.1382284  98.2780838  83.4086418  58.0888319  98.3901882  83.4128475
  56.8579292  98.6413765  82.5685883 111.2035179  31.7380476  17.6972878
 110.8419228  31.8234444  18.5794377 110.9247494  32.5348282  17.2459984
 113.5021496  48.5017538   8.8203049 113.2126141  47.8549290   9.4637477
 113.3356380  49.3465853   9.2383444  39.8212647  30.7412314  46.6533184
  40.1975250  30.4179859  45.8346748  40.4814148  31.3415933  46.9997263
  16.3551259  18.7369704  31.1616135  16.8777359  18.0795240  30.7024002
  16.2506294  19.4458890  30.5269909 107.3821545  59.7061777  36.3932371
 106.7800617  58.9755392  36.5342712 107.4493885  60.1297379  37.2489882
   1.5014768  32.7238131   1.0311831   2.3170510  32.6973510   0.5308130
   1.5641801  33.5263300   1.5491278  18.8517022  24.0844512  18.3195639
  19.4380569  23.3439660  18.1643116  18.4859943  24.2851019  17.4580371
  15.0936496  58.1543922  62.0746851  15.9270275  58.2138872  61.6075945
  14.4375169  58.0651665  61.3834858  46.4625740  68.2213402  91.9209290
  46.4270782  67.7497196  92.7531242  45.7083416  67.8964758  91.4291668
 105.2367306  33.3395505  13.2135868 105.0893974  32.4695826  12.8425324
 106.1502743  33.5366321  13.0066407  43.9160872  51.9385147  44.3819952
  43.9465714  52.6611614  43.7550354  44.8338699  51.7091179  44.5278835
  15.2187634  51.2548304  21.2072206  15.1320457  51.8342972  21.9641423
  15.7419002  50.5197763  21.5269947  32.7209282  35.1152945  13.1462026
  33.6357474  35.3546810  13.2946289  32.7596927  34.2231202  12.8015947
  13.7654388  64.4812870   4.0021932  13.4466338  65.3028059   3.6284289
  14.5441341  64.7307968   4.4997978 109.7237301  22.4361658  28.4111762
 110.2018356  22.7237916  29.1889453 108.8098907  22.6503396  28.5989451
  84.5999813  84.5840454  71.0766697  84.8785400  84.3850040  70.1827908
  85.3080654  85.1195240  71.4345789   4.8804545  57.4730206  43.3123350
   4.5444635  57.0933771  44.1242552   4.1524553  57.9929066  42.9717970
  40.5118704  45.4399014  14.8570454  40.9737444  45.1366186  15.6386614
  40.2924204  44.6382046  14.3823302  92.7042866  52.3710775  15.7687926
  93.4721088  52.8643560  16.0574996  92.6991463  51.5902615  16.3224471
  23.5248542 102.3642540  62.3711967  22.8316569 102.2174740  61.7276430
  23.9914131 101.5296173  62.4152613  98.8755322  41.9186544   1.7249574
  98.6124992  42.7551603   1.3411605  99.5535755  42.1491766   2.3600531
  76.0489130  51.9603348  82.7023125  76.7108488  51.3183880  82.4454498
  75.9991407  52.5630283  81.9603539   3.5232872  27.7858686   5.0332981
   4.2642456  28.0802488   5.5629700   3.4173015  26.8624425   5.2619463
  85.0605774   9.1764450  85.0150871  84.9038696   8.8922495  84.1145802
  84.5423508   8.5749006  85.5497074  27.9467487  93.0779171  84.1328144
  28.3350611  93.7690926  83.5964203  28.6774063  92.4942875  84.3371296
   6.9926161  18.4589458  38.8282275   7.3186785  19.3452394  38.6720300
   6.1962831  18.4002090  38.3003688  83.3722496  96.1677456  69.2670727
  82.7326012  96.8510342  69.4675493  84.1125584  96.3560104  69.8439026
  71.8100023  86.1222458  63.6304235  71.8660975  87.0722961  63.5280561
  71.0044289  85.9821129  64.1280746   5.2626246  69.1827536  27.4962687
   5.1567727  68.2356977  27.4062061   5.3339875  69.5023870  26.5968370
 113.4372139  44.2349625  17.7271008 113.5563946  44.6542883  18.5792732
 113.8082314  44.8562050  17.1004915 108.2011795  39.1317749  36.7435336
 107.7713680  39.9859166  36.7874670 107.5120831  38.5312104  36.4594531
 112.2556591  65.0241947  22.6130605 111.8668079  65.7233477  22.0875096
 113.1056213  64.8615217  22.2039938  39.6388197  17.4990511  10.5395877
  40.2007771  18.2550538  10.3695941  40.1683903  16.9270742  11.0951328
 101.2773037  75.0675154  16.6121507 101.8538857  75.8275223  16.5335763
 101.8398762  74.3186617  16.4147425 102.0589542  11.0008419  30.9940505
 101.7371273  11.6571641  31.6120267 102.9869270  10.9048712  31.2082672
  16.9042969  56.1703777  37.4407029  17.1240187  56.9930696  37.0035124
  16.5404105  56.4374590  38.2847929   1.1334918  61.5222073   0.0061338
   0.5633210  61.0039616   0.5740772   1.7744340  61.9114113   0.6010670
  41.8199778  66.5375471   7.9609388  41.3266611  66.6760826   8.7694418
  41.9676542  67.4183559   7.6165581  33.9096332  59.7507906  21.2071705
  34.8542142  59.6493816  21.3242888  33.7087512  60.5984783  21.6037822
  44.9503803  31.8994784  17.2320819  44.8677635  31.1279368  17.7925539
  45.3580952  32.5599146  17.7922821  58.6313644 107.1002367  23.9611220
  58.0231204 106.4024052  24.2046428  59.4859138 106.6706665  23.9231277
  16.4876759  39.0649033  19.0207100  15.6107783  39.4002509  18.8340950
  16.4354014  38.1311226  18.8168633   2.2562504  41.5185833  18.5074782
   2.7834073  42.1768856  18.9602184   2.6104698  40.6810856  18.8064086
  30.9515524  76.3324404   6.3120008  31.2054777  77.2427607   6.1600947
  30.1457191  76.2211943   5.8075339 112.3064423  27.3351622   3.2611325
 112.0348454  28.2046390   2.9670665 112.9240227  27.5049806   3.9724615
  58.0381584  25.2901292   7.6324230  57.2476101  25.0031543   8.0894899
  57.7134514  25.7718062   6.8716443 109.8080158  45.7177401  27.7042866
 109.4146442  46.5707397  27.5201988 110.6512356  45.7401848  27.2518468
  14.7593212  52.4968719  23.8137174  15.0142360  52.0517778  24.6218920
  13.8935339  52.8588295  24.0024734 109.5981407  83.7805748   0.1686982
 110.1642036  83.2104588  -0.3516500 109.7358513  83.4950924   1.0718953
  16.6914320  66.3338137  48.1249619  16.4777422  66.8423033  47.3426533
  16.3867676  65.4485178  47.9258108  38.2803488  41.0491419  13.8442421
  38.2303143  40.5273008  14.6451223  38.6586308  40.4560137  13.1951392
  41.0539627  55.3974485  31.3408279  40.7316065  56.0769176  30.7486773
  41.4464903  54.7428560  30.7631946  40.7542562   7.4836814  89.5003319
  41.4977169   8.0790979  89.4055843  41.0236597   6.8711668  90.1847839
  55.7582474  53.8747931  22.4491382  54.9175835  53.5840368  22.0956206
  56.3860130  53.7010098  21.7477512  22.4684954  33.0030918  38.0243969
  22.8755021  33.6006379  37.3970890  21.7849803  33.5255265  38.4440374
   6.7758816  79.9131727  25.3873634   7.6528418  79.5736980  25.5660510
   6.7208594  79.9436283  24.4322324  17.6454115  32.0927978  13.9901912
  17.1309125  31.4014387  14.4067764  18.5393739  31.7509270  13.9765680
 106.3471794  44.0767479  22.7769446 105.4964542  43.6942911  22.5619125
 106.3575077  44.9140024  22.3131299  57.1088076  63.2134676  87.9582787
  56.1822987  62.9793310  88.0130005  57.5519323  62.5677443  88.5086632
  48.1932163  39.8377419  21.3563561  48.2666636  39.8824430  20.4030252
  48.3663893  38.9202428  21.5671611   3.2693544  32.4474788  31.2368202
   2.5266439  32.7662897  30.7240105   2.9260758  31.6893744  31.7097545
  26.3203692   9.6733719  14.7709334  25.5896854   9.3595070  14.2381859
  25.9093189  10.2088165  15.4495859  42.8630352  39.7358513  30.3376770
  43.0007410  40.1851511  29.5037723  42.4598598  40.3958750  30.9016371
  46.5961885  38.5126305  24.2639327  46.8158531  39.3771672  23.9167213
  45.8594513  38.2193255  23.7278128   7.9956287  41.4183092   1.2461001
   7.0641780  41.5276861   1.0546095   8.0475891  41.4377356   2.2016914
  25.7448769  35.0067663  40.0092363  25.5128527  34.0857625  39.8902774
  26.0543466  35.0609446  40.9134054  19.4927454  59.3126488  15.0301313
  19.1400301  58.4516716  15.2549541  18.7328506  59.8122501  14.7314882
   0.5480792  52.5821877  54.1230011  -0.1701512  52.9720402  53.6246109
   1.3190275  52.7068996  53.5695410  36.5591264  95.5368233   2.6727140
  36.3362265  94.8934364   3.3454761  35.7647657  96.0609055   2.5699461
  35.8800697  20.7772636  31.9256496  35.6172442  21.6969705  31.8897033
  35.0580573  20.2969575  32.0248246  49.4628000  48.6718273  25.6122613
  49.3360996  47.9994631  24.9428535  48.7382555  48.5404682  26.2238216
  18.0882418  54.4040871   4.7400022  17.9790187  54.5396042   5.6812441
  18.2721138  55.2766752   4.3921322  29.1945052  48.5841370  35.0177145
  29.2823291  49.1219139  35.8046818  28.2499623  48.5161257  34.8782802
  97.2740650  72.8859091  43.5148382  97.6462650  72.2269392  44.1008902
  96.6104794  73.3291388  44.0434599  97.3369503  62.5730276  28.8663387
  96.4108086  62.7653790  29.0129685  97.3352528  61.7695999  28.3460188
 100.2760220  63.0863476  74.5981503  99.3590450  63.3326721  74.4768476
 100.4498005  62.4575806  73.8976669 109.2609692  25.8331776  22.2659802
 108.9152050  25.8990026  21.3758421 108.6058998  25.3210092  22.7401137
 112.1123314  90.7939053  44.1568899 112.9837132  90.9429169  44.5239305
 111.6415882  91.6116524  44.3178558  44.7230196  97.0013142  80.1872826
  44.0424681  96.8900967  79.5234251  45.5449390  96.9070530  79.7058296
  31.9744062  97.1887016  71.0534239  32.0795226  97.5053310  70.1562452
  31.0470295  97.3240280  71.2480688  41.4932203  55.8282518  19.3120229
  40.8591318  55.6892014  18.6085832  41.6349173  56.7748404  19.3230963
  39.5741701  64.4225121  37.9904437  39.4278216  64.2609692  38.9224935
  38.6949372  64.4857073  37.6173663  19.9804211  28.9247584   8.7470037
  19.4834149  29.2462683   9.4992322  20.8965397  29.0108252   9.0107316
 113.4365368  84.0836048  23.4667516 113.8129997  84.3625546  22.6320672
 112.8387928  83.3730316  23.2343554  16.5738249  55.0137568  31.1421108
  16.1585498  55.0400782  30.2800846  16.5420914  55.9191942  31.4509988
  18.0242312  63.4586000  20.4657340  17.3502016  64.0800524  20.7408977
  18.1607330  63.6487007  19.5375860  12.6400399  26.1435318   9.8169887
  12.2219455  26.9136429   9.4318175  11.9576085  25.7457352  10.3576148
   2.3853871  55.3053904   5.9338433   3.2934624  55.6049585   5.9773242
   2.0139599  55.5426598   6.7835361  48.1945229  84.4779110  29.7053742
  48.5160589  84.1007233  28.8864875  48.9060926  85.0443172  30.0038457
  89.4344521  66.5540457   1.1487950  89.0083790  67.4100542   1.1929032
  90.1675510  66.6195822   1.7607550  48.2381630  51.3668060  25.9489393
  48.5267115  50.4664707  25.7993555  47.5342703  51.5012836  25.3143668
   6.5381658  40.2481651  34.8171043   6.7202467  39.6977210  34.0554690
   6.3479066  39.6279144  35.5208969  19.1036320  75.1817560  22.4826145
  18.8900924  75.7795763  23.1990266  18.4208941  75.3366518  21.8298459
  58.5602760  80.6575394  69.3503046  58.2662916  79.8700476  68.8924074
  57.8013134  80.9330750  69.8643923  54.5035839  61.1520720  10.9416413
  54.5165205  60.1951790  10.9622979  53.6675835  61.3890219  11.3431215
  14.9784136  70.0396061  14.6322680  15.1429415  70.1580334  13.6967802
  15.4311049  69.2258692  14.8539424   3.1058776   2.2797795  90.9975719
   3.7972993   1.6413999  90.8225250   3.5071743   3.1268102  90.8033276
  51.0549402  52.9918051  30.1820683  50.2339697  53.2517433  29.7641277
  51.7327833  53.4459877  29.6815944  62.6056671  63.4779787  28.3157611
  62.0393896  63.3847237  27.5496888  62.5257015  62.6424265  28.7758517
  82.9886818  84.7077274  63.7317371  82.7537727  84.9052525  62.8250790
  82.3388100  84.0635204  64.0126324  44.9230337  57.8857279  26.4084435
  45.7760859  58.2205009  26.6849709  44.8422527  58.1610584  25.4952621
   6.7280996  23.5670710  85.8646107   7.6519966  23.8144541  85.8265591
   6.3032591  24.1270280  85.2148438  30.7863450  42.2581625  36.0187292
  31.0965061  41.7828035  36.7894840  30.2678919  42.9796743  36.3748980
   3.8666889  48.4141541  32.7588868   3.8788459  47.7176142  33.4153318
   4.7136813  48.8494062  32.8557897  24.8349285  40.6452513   3.5720018
  24.1408467  40.1176548   3.1768769  25.5441117  40.0237370   3.7363502
  34.4715881  64.1810036  14.0143943  33.9469671  64.9581528  13.8219273
  34.0185523  63.7612915  14.7457159  97.7960777  48.8674402  23.6975932
  97.9693413  49.5949697  24.2950177  96.8842602  48.6304617  23.8668704
  29.2729115  63.0103540  39.0451932  29.7811151  62.4068737  39.5871973
  29.8943281  63.3230495  38.3877015  45.8629322  29.1528535   8.2359266
  45.8397579  28.8207364   9.1333640  44.9735165  29.4673586   8.0738866
  25.9653974  48.9013433  11.3078392  25.3084397  49.3150806  10.7479644
  25.4842830  48.6502886  12.0963383  36.3865852  19.4158137  46.1948156
  36.0337734  19.4788873  47.0823812  36.9218993  20.2028203  46.0933733
  39.6260118  28.8640451  48.9269209  40.0365353  28.0017424  48.8626146
  39.1498637  28.9647055  48.1026745  27.2829437  62.0142174  47.6043558
  26.5328932  61.9200373  47.0171738  27.2060800  61.2778759  48.2110929
  49.8126268  96.7510891  82.3092937  49.2081118  97.1584129  81.6889095
  50.6654978  96.7955971  81.8770123  25.9266448  75.3133249  21.8488812
  26.8157077  75.0490618  21.6123128  25.6533003  74.6731043  22.5058699
  30.5147362  30.2097178  69.5863581  30.9946346  29.4388247  69.2836142
  30.1143885  29.9340534  70.4109573  20.8915019  79.8984671  46.4695930
  21.2991524  79.6108246  45.6526995  20.1737380  79.2808390  46.6095352
  20.1289463  20.7956767  23.4282351  20.5013418  19.9235713  23.2979059
  20.6594300  21.3679290  22.8738475  70.9500408  78.1733179  82.3365593
  71.2764978  77.7914429  83.1513214  71.6161489  77.9535007  81.6852474
  16.7031860  65.0404119   1.0156647  16.5841937  65.6833029   1.7147803
  17.0774686  65.5412436   0.2908824  78.7168932  28.8884687  33.6039615
  78.3964682  29.0427470  32.7152777  78.0028105  29.1811514  34.1702247
  16.9876516  37.7532530   0.1709162  16.0327196  37.8120375   0.2005913
  17.2625256  37.8586793   1.0817189  30.8468437   8.7302762   3.6552587
  30.9245682   8.9395940   4.5860526  29.9298525   8.4803396   3.5417286
  46.2891960 100.5637455  73.9163113  46.1268663 101.5058422  73.8680172
  45.8008862 100.1984310  73.1785250  23.9329648  38.3721447  34.8042512
  23.9961100  37.4349594  34.9884415  24.5441484  38.7786913  35.4185843
 108.1892395  61.8323183  23.0912590 107.7458668  61.7890692  22.2440386
 107.9501343  62.6897478  23.4432220  25.7103705  18.9538229   0.6082126
  26.2892652  18.8142419   1.3576329  24.8281145  18.8478887   0.9640688
  48.4147310  75.4259920  15.8845282  49.3105793  75.0891542  15.8691406
  48.4832048  76.3056850  15.5134761  66.7500925  52.1384811  29.5968938
  66.4748287  53.0431271  29.7454834  67.6374960  52.2127342  29.2458463
  32.4017596  81.1233425  27.3608923  32.5716329  80.3017712  26.9000340
  33.2709503  81.4598942  27.5787783  89.5059967  65.8467388   4.2260340
  89.9457073  66.1658382   5.0141084  88.6522102  66.2793875   4.2363155
  51.5790701  53.5389090   2.3461942  51.4277506  54.4213057   2.6848799
  50.7031155  53.1990623   2.1633375  50.4199457  72.7857161  90.6138611
  51.2526226  72.3644304  90.4007912  50.2663136  73.3925152  89.8896885
  89.3878937  88.7048531  89.7819996  88.9826870  88.9007950  90.6267738
  90.2836704  89.0319824  89.8644066   9.7483778  49.8515224  48.5535717
   9.0294260  50.2095509  48.0328465  10.4123592  49.6069527  47.9089451
  98.8513279  37.9660249  10.7198095  99.3513870  38.3369136   9.9927539
  99.1416836  38.4597731  11.4867127  60.9012985  31.4893961  16.3976026
  61.5041590  31.8084621  15.7260466  60.3004408  32.2194934  16.5464807
  68.2789040  79.0198183  69.3003273  68.4554815  79.7353601  69.9111032
  68.1527519  78.2532406  69.8595047   3.4173894  72.7048397   9.3002659
   4.2447722  72.2744846   9.0847123   2.7850586  71.9892073   9.3654919
  15.0207913  31.4604354  60.3136396  14.9464726  30.5708647  60.6591463
  15.0142038  31.3494515  59.3629169  94.5693302  49.8583698  36.8077779
  93.8661003  49.6661997  37.4280739  95.2501488  50.2722645  37.3382521
  79.2312622  81.9446564  87.3477554  78.8549185  82.6138973  86.7761707
  79.0572357  81.1186981  86.8963718   7.0417827  47.5388861  22.9699969
   7.5015491  46.7214203  23.1613040   6.1908066  47.2613478  22.6308155
  96.5493679  51.5725660   1.5626618  97.3660088  51.0749912   1.6044879
  96.7640972  52.3413324   1.0343429  35.8015943  69.6833086   6.1349297
  35.2064228  69.0031815   6.4502543  36.4157653  69.2191935   5.5660510
  25.8699250  59.4437027  19.0089750  25.3402162  59.8727560  18.3369970
  26.6255665  59.0980816  18.5338116 111.4393425  60.9272242  -0.0776486
 111.8277168  60.1303244   0.2833855 110.5598354  60.9568930   0.2989474
  66.6157770  95.5841446  70.3417635  67.0481014  95.6892490  69.4942474
  67.3300886  95.6008816  70.9787178  33.1601286  92.2914505   8.1756049
  33.1158876  92.5228882   9.1033506  33.0604911  93.1250381   7.7157891
   0.2109454  68.4189796  17.2990799  -0.2069250  68.1848145  18.1278038
   0.0519018  67.6662683  16.7295527 109.8642254  35.0455832  90.7865143
 110.8020878  35.0393820  90.9778500 109.4892216  34.4197726  91.4061642
  25.8076739  56.6437960  16.5081751  25.4575443  55.8568096  16.9256675
  26.6618109  56.7737055  16.9202459   1.0043025  22.4847007  32.6638722
   0.0604380  22.3256850  32.6557565   1.1293066  23.2153773  32.0583034
  47.4815226  95.5544949  83.1290627  47.7105379  95.4584980  84.0534973
  48.3230305  95.6452751  82.6820183   9.2169070  74.9575233  13.9047956
   8.7754250  74.5460653  14.6477830   9.3071252  75.8760643  14.1585112
  48.3732891  59.0411806  13.3717966  48.0335522  59.2847443  14.2328930
  48.7665701  58.1786823  13.5046792   5.5540091   5.4659808  32.5787401
   5.0595522   5.7677364  31.8167114   6.4650762   5.6727183  32.3702979
  76.7181158  91.7708588  69.1689539  77.6457405  91.8435192  69.3935966
  76.4090872  92.6760292  69.1316700  21.6652656  76.2778282   8.3766216
  20.9880424  76.9292593   8.1942981  22.1025467  76.1450863   7.5355524
  36.1307907  30.8895230  86.3380718  35.2987576  31.1442065  85.9392166
  36.7962003  31.2078238  85.7280350  24.7834587  81.8429375  28.9817476
  24.6020365  80.9433270  29.2538166  25.6640768  82.0201874  29.3123889
  48.7698841  72.5900173   9.6086657  48.4380960  72.8521967   8.7499392
  49.6722841  72.3167992   9.4435674  34.4141865  61.7491531  25.2443409
  34.5027375  60.8532763  24.9190760  34.8838568  61.7486668  26.0783911
  32.2216153  49.6106005  18.8874066  32.7736759  50.2023888  19.3985283
  32.6262975  49.5947647  18.0201042  22.5689268  76.6390800  27.0466590
  22.7195930  77.1073055  27.8678155  22.5417256  75.7160759  27.2987604
 101.8319988   3.5596731  89.3737602 101.8707275   2.9938573  88.6026669
 101.5349865   4.4046673  89.0361118  29.2473769  39.7767735  39.0603805
  28.6517787  40.2385712  39.6504974  29.5692611  39.0370703  39.5756102
  11.8904924  84.0067482  40.2173281  11.6336930  83.5122776  40.9956503
  12.8344595  83.8657665  40.1446533  24.7805929  82.1597576   1.3091788
  24.1122842  81.4748573   1.3317990  25.1550579  82.1581936   2.1900910
   9.0098870  99.8719883  55.9623623   8.0634058  99.7352505  56.0036755
   9.1851318 100.5368233  56.6283321  45.2894926  75.1105452  19.0087831
  44.8092031  74.3884420  18.6036634  44.6080828  75.6912613  19.3474412
  28.5690093  65.9732056  18.4985948  28.7486267  66.5375519  17.7466094
  28.1486320  66.5502977  19.1361523  39.7702670 101.3160324  88.1211376
  40.5021334 101.7917633  87.7283478  39.7568798 100.4759979  87.6624393
   8.5848296  88.4211922   5.0389630   7.8813195  87.7980137   4.8574546
   9.2337394  88.2557297   4.3550259  28.2228589  57.0055580  11.0495961
  28.4275532  57.5496864  10.2891660  28.9799571  57.1058369  11.6266394
  60.5204391  70.3589535  10.6484663  61.0907412  69.8626852  10.0613499
  61.1153173  70.9312344  11.1330688  79.7051096   5.1379001  11.8191469
  79.0665627   5.4759413  11.1912799  79.4883394   5.5774140  12.6413810
  30.4498005  51.3872099  20.9175014  29.5156670  51.4945602  20.7383251
  30.4943323  50.6448078  21.5200686  10.5083561  89.8483658  49.2414951
  11.2534082  89.7517300  49.8346186  10.8878422  90.1978111  48.4352016
  71.6633272  17.6064754  64.2147446  71.3126469  18.2957971  64.7787380
  72.3387623  18.0425429  63.6952543  25.0120902  76.8586731  45.1362276
  25.4072499  77.4284935  44.4763899  24.7857499  76.0604906  44.6588373
  19.4921613  50.6737423  26.2882948  20.1098990  51.3947916  26.1669636
  18.9822340  50.6563759  25.4784155  66.0828018  79.7828484  85.2213383
  66.3249445  79.8139763  84.2957973  66.3830709  80.6197834  85.5757427
  18.1011081  40.6201696  22.4399853  18.5814810  39.8591638  22.7660894
  17.2412694  40.2754211  22.1990371  17.8705692  46.7053556   2.3984386
  17.1368790  46.4504766   2.9578716  18.5672283  46.0877800   2.6209179
 102.6273823  17.8925276  88.2077217 102.8753376  16.9680655  88.1967831
 102.7044201  18.1503117  89.1263390  18.4774482  63.5164738  14.2982841
  17.6147914  63.9309120  14.3154347  18.2920730  62.5773954  14.2991781
  23.0354142  65.9434557  19.0385532  22.1315241  66.1783838  19.2483723
  23.0975533  66.0540199  18.0897927  79.7580338  13.7122989  87.9266453
  79.3906450  14.5611906  87.6803970  79.6545076  13.1704986  87.1443653
  81.4203739 101.0587406  87.5823021  80.4975414 101.2915707  87.4802589
  81.8936825 101.7420101  87.1076012  25.8153391  65.7615089  22.9184675
  25.2950501  65.8750391  22.1230793  25.1999497  65.4031944  23.5581064
  12.4229944  62.9316568  25.9002781  12.3033810  63.6677027  25.3001451
  12.8101373  63.3219862  26.6838574  41.7634726  91.3714600  92.0171928
  41.6728735  92.1552467  91.4752483  41.4518118  90.6579590  91.4604092
 103.6483765  63.9264631  30.7704210 104.1205692  64.0889692  31.5870333
 103.0523586  63.2066727  30.9775472  86.2101078   5.0538206  29.9007154
  85.8276939   5.5039144  30.6539774  85.4964924   4.5182738  29.5540667
  44.6641493 101.5044594  90.6120968  44.2442703 102.2401619  91.0578251
  45.3552103 101.2237835  91.2119961  20.4522109  42.7079630  22.9426312
  20.2158618  43.5455513  23.3411503  19.7381139  42.1179628  23.1838703
  31.1447144  70.6789637  12.6995993  31.8160224  71.3461018  12.8427827
  31.1167002  70.1873350  13.5204232  46.8734837  81.2155724   6.5080577
  46.3317585  81.4115238   5.7436180  47.5226212  80.5894279   6.1874449
  11.9710803  58.2231474  16.0425007  11.3057864  58.4636164  15.3976810
  12.0871198  59.0117884  16.5724206  96.1714077  19.7884464  82.3546314
  95.3394032  19.9415541  82.8024673  96.5380383  20.6630683  82.2248077
  29.6079612  53.6252499  29.2939091  29.9919558  52.7570343  29.4162965
  29.9940372  53.9451218  28.4785199  52.2900391  49.7963905  43.0165386
  52.4296093  50.7275200  43.1890249  52.9634666  49.5679188  42.3758173
 104.4360638  11.7280900  62.5007534 103.7589931  11.2162554  62.0582342
 105.2605629  11.3569570  62.1865845  16.6874528  79.8323774  22.1924424
  16.2116134  79.7264862  23.0162120  17.2719312  80.5744553  22.3471427
  74.3086338  21.5564561  77.0087814  73.5772514  21.1729074  77.4927282
  73.9077854  22.2382426  76.4695978  83.6996937   0.6666584  90.9318256
  84.5850563   0.7181609  90.5716801  83.7158394  -0.1051839  91.4977169
  42.4693823  67.4172354  33.7360191  42.7316999  66.9737577  34.5427084
  42.4889660  66.7315006  33.0684686  37.2591257   7.0254564   6.3723582
  36.8185806   6.7159188   7.1637732  37.0963764   6.3402647   5.7240862
  12.7796030  81.8379974   2.7528852  13.2246280  82.5180054   2.2471324
  13.3506823  81.6873550   3.5061494  79.3383026  27.1435308  87.4897194
  79.9585342  27.3344350  86.7860889  78.5371113  26.8791389  87.0375824
  12.0280731  82.3472309   9.5080501  11.5134633  82.2584248  10.3102469
  11.6602743  83.1155205   9.0713727  99.6415424   0.4715291   5.7095903
  98.8912487   0.6242822   6.2840056  99.2538166   0.2455278   4.8641199
  81.5558052  13.8970101  90.0232983  81.5802765  14.7902799  89.6802235
  80.8204556  13.4859562  89.5688438  26.0813308  69.7382784  23.0587697
  26.5383124  70.2776957  23.7040854  25.6998563  69.0246868  23.5701323
  -0.1087237  18.4665954  10.1283407   0.3917074  17.8418326   9.6034914
   0.3604078  19.2947316  10.0266814  47.1816683  41.2600565  23.5334706
  47.6736116  41.0857677  22.7310681  47.8144026  41.6805315  24.1157770
  51.7522717  40.4448032  19.6647036  52.4722862  39.9460745  19.2785978
  51.3264513  40.8672428  18.9187443  94.7467422   2.0577785  82.9711819
  94.1753578   2.8197360  82.8754044  94.5449162   1.5101813  82.2124767
  34.9658251  41.8681669  16.6812634  34.1472769  41.4397430  16.4309335
  35.4282141  42.0031691  15.8540988  17.5273013  67.3847485   8.6773986
  18.0463207  67.9231119   8.0798906  18.1284952  66.6971588   8.9637864
  33.6754751  84.3824577  15.8302462  33.2508850  84.2344379  16.6752577
  33.1067467  83.9451599  15.1965678  13.8298094  53.9558554   9.2979950
  12.9346490  53.6169386   9.3056655  13.7481308  54.8399496   8.9403135
  95.4180908  31.8978810  83.4467602  95.1609612  31.5413880  82.5964546
  96.1850548  31.3841248  83.6998463   4.4606158   8.5133564  81.2730598
   4.4672206   9.1162771  82.0164776   5.2414227   7.9734051  81.3956356
   0.7209946  17.7171731  83.0796432   1.0439830  17.5117362  82.2023106
  -0.1059540  17.2400141  83.1482506  30.9070063  53.6086273   2.0427105
  31.0458612  53.1213713   2.8548256  30.2564430  53.0953026   1.5636545
  24.3864274  15.6405962  83.8801575  25.0176072  15.7828152  84.5855808
  24.9136901  15.3216672  83.1476974  56.6288710  37.1777153  26.7849445
  57.2208452  36.4666748  26.5395474  57.0789576  37.9730988  26.5003085
  42.4043465  65.3383827  14.3249917  42.3394871  65.6442642  15.2296817
  41.4959717  65.2470064  14.0373492  14.8726153  51.1278582  26.0530806
  15.6387353  51.1107063  26.6266632  14.9479783  50.3305101  25.5288744
  48.1556988  65.8677721  85.0524616  48.4104729  65.3700686  85.8293819
  48.1677532  66.7811441  85.3385353  45.6788158  84.4043732  27.2682643
  46.5724802  84.0649700  27.2192597  45.6876278  84.9942112  28.0220890
  33.4167075  81.8730831   0.4222308  33.9099026  81.6348934  -0.3627895
  33.4552789  81.0927677   0.9752683  23.2682896  20.8317018  39.5748401
  24.0708590  21.0532928  39.1025972  23.5555100  20.2413750  40.2714396
  38.5016799  81.8375301  46.3468552  39.3227649  81.6827869  45.8798361
  38.4536552  81.1285973  46.9882202  38.4858441  77.7743578   1.2028711
  39.3424559  77.8641462   0.7852732  37.9976392  78.5462523   0.9163914
 104.7865677   6.7220938  91.8267345 104.5665550   7.2251749  92.6107788
 104.4737816   5.8371186  92.0143986  58.8982344  89.0905666  91.8464375
  58.4598351  89.8165512  92.2902679  59.7095060  88.9639187  92.3383999
  96.7717648  16.7866051  63.3471298  96.4373493  16.5743387  62.4757290
  96.7674351  17.7432704  63.3788490  16.4231288 104.1244793  51.6955328
  16.3632858 104.0423870  50.7437420  17.1926081 104.6750355  51.8405390
  19.2753398  71.9638443  23.8133574  19.9083793  72.4720001  23.3061385
  19.3323541  72.3247480  24.6980786  21.6634154  68.6523390   5.2264762
  20.8601117  68.9492035   4.7989196  22.0486546  69.4487715   5.5918789
  16.2689126  66.0648775  17.5597262  15.5962873  65.4896450  17.9242992
  16.1198628  66.9084263  17.9868591  48.4277582  72.3952007  30.9878182
  47.6583672  71.8802309  30.7447624  48.6624050  72.0781755  31.8599820
  25.4463935  66.4995861  43.7684155  26.2308550  66.2026739  44.2296124
  25.2914214  65.8289909  43.1031942  77.9749060  24.8748279  78.3282232
  77.5075865  25.6581879  78.0380678  78.7083721  24.7938967  77.7185392
 108.6136436  17.3115695  77.7087450 108.0105495  18.0508935  77.6318836
 108.1599617  16.5866804  77.2786999  73.4031105  65.4247761  35.1524973
  73.0764389  64.5351601  35.0179553  74.3342686  65.3731775  34.9368095
  69.8759604  29.5188951  81.2085724  70.6611156  29.4536185  80.6649685
  69.1494274  29.4374347  80.5907154  34.0852189  78.5486984  20.7575369
  33.8561821  79.3948078  20.3729939  33.2584000  78.0673075  20.7869840
  26.9653869  23.6454344  33.7637401  27.2289491  24.5237160  33.4891748
  27.6810575  23.0792880  33.4747314  41.8923140  45.9887791  26.8962550
  42.1945095  45.9920549  25.9880161  41.0214806  46.3845062  26.8603539
  22.7346945  66.9206953   7.0297909  23.5921073  66.8102074   6.6188544
  22.2337914  67.4419641   6.4024085  16.6911244  31.9966197   3.0810326
  16.5380979  31.3284016   3.7490883  16.7171133  32.8204036   3.5677943
  40.5199957  54.1339254  15.6916380  41.3669348  54.4098902  15.3412509
  40.2124262  54.8872232  16.1957955  36.7837548  49.1783953  36.5941763
  36.3581109  48.6498308  35.9191370  36.3512135  48.9207506  37.4082780
  17.1259832  89.8601723   6.5937620  16.5559697  90.2992344   7.2250646
  17.7461457  90.5361366   6.3204420  30.0996780  82.6719761  28.1512785
  30.7534003  82.7845192  28.8413596  30.5538440  82.1767521  27.4695802
   7.7414495  88.1232166  26.4892864   6.7899388  88.1399441  26.5921378
   8.0430180  88.9230728  26.9199991  26.1245728  53.3346033  56.1198187
  26.0364318  52.4461889  56.4650393  25.4196930  53.8263369  56.5412140
  14.5068955   7.8533047  90.1153278  15.1478970   8.2955801  90.6718731
  15.0304234   7.2775501  89.5579624  26.7652845  83.9698219  11.7207670
  26.3667870  84.3291092  12.5134456  26.3716388  83.1023788  11.6268265
  20.5249929  14.2707002  40.6498814  21.0302258  13.6238098  41.1423254
  19.6840429  14.3147385  41.1049604  27.2847438  57.1160603  43.7032461
  26.9891977  57.9491663  44.0704155  27.6574230  56.6447020  44.4483376
  17.2889400  78.2651615   6.5678447  17.7658129  77.6827145   5.9765923
  17.3892426  79.1345310   6.1800754  17.4679959  87.0695210  46.3839340
  17.3879826  88.0187893  46.4772749  18.3421481  86.8688107  46.7183065
 109.1752625  20.6342554  81.2886429 109.0270424  21.1840510  82.0580482
 108.5092545  19.9496353  81.3515759  84.3148136  23.1662250  81.7581177
  84.8797512  23.8975787  81.5087223  84.6781063  22.4131989  81.2920666
  45.4647875  62.7644682  29.1726136  45.0186110  63.4807777  29.6243405
  45.8361673  62.2320986  29.8761010   9.7174710  11.9680607  80.8123779
   9.9210632  12.0802295  79.8838282  10.1542544  11.1520541  81.0564709
  19.7103584 101.0895348  45.6828213  19.2995191 100.9323788  46.5329647
  19.0073156 101.4449692  45.1391029  52.3850298  62.2978067  13.4554553
  52.4931765  63.1854105  13.1138527  51.4905643  62.0560408  13.2152176
  94.3477821  14.5935488  87.8891945  94.9428082  13.9955771  88.3415318
  94.8609924  15.3914762  87.7620888   8.7134141  61.5513754  23.9615560
   9.0542865  61.9376135  24.7683144   8.1859988  62.2462368  23.5675597
  40.9462214  60.2038622  25.7039475  41.3874674  59.9081039  26.5002275
  41.5473080  59.9708366  24.9963999  74.3438959  82.0237541  73.7114906
  73.6710739  82.5541687  74.1383410  74.2443895  82.2157001  72.7790308
  68.1474352  96.6104317  92.2403908  68.8597918  96.0429668  91.9458389
  68.4481096  97.4965382  92.0387936 101.0764217  21.5968966  81.4250278
 100.6450081  21.6624689  80.5730820 101.9933033  21.4182806  81.2160873
  61.6885900  72.2389555  18.2989550  61.7907715  73.1327629  17.9720056
  62.5819063  71.8988895  18.3496916   1.0590829  94.4737625  14.2312503
   1.1104330  93.5742092  14.5543325   1.0726814  95.0133228  15.0217736
  13.8830447  58.4383869  29.8111701  14.1994989  58.1761122  28.9467049
  14.6320307  58.8734579  30.2185559  20.2738547  45.5207682  24.0811110
  19.3992496  45.8437252  23.8643289  20.3934455  45.7528925  25.0020051
  84.8160934   8.2998413  51.9257355  85.2397728   7.4631280  51.7343235
  85.3311634   8.9453691  51.4417601  21.5252900  54.2682791  39.5450735
  21.0468531  54.8276901  40.1569510  22.1517181  54.8560810  39.1228056
  73.5625839  64.4208479  41.5378666  72.6836205  64.7112179  41.7814636
  73.9838457  65.2038574  41.1833763  12.9895806  56.9218254  10.6340921
  12.8499699  56.1500263  11.1827898  12.7374995  56.6394377   9.7549194
  49.1386318  55.8205128   0.3276329  49.6065187  55.5285597  -0.4547207
  48.2239056  55.5956221   0.1575425  34.9852204  60.3327942  33.5769629
  35.8863544  60.5281067  33.8339472  34.9340534  60.6018448  32.6597786
  17.3580503  63.8843870  39.3995309  18.0847061  63.3517361  39.7227740
  17.7644622  64.4975996  38.7871313  47.3194742  51.6767025  28.9142895
  48.0513334  51.1287212  29.1977024  47.4518919  51.7848349  27.9724789
  37.6610637  74.0111303   2.5190356  37.7859426  74.4221830   1.6636556
  38.0324507  73.1344891   2.4200107  52.0676613  38.2584143  41.7756701
  51.9047689  37.3152471  41.7873287  51.8501711  38.5280228  40.8833456
   6.6778696  49.1900969   8.1369853   6.7963183  50.1109600   8.3698279
   6.4616030  48.7597847   8.9642054  72.1587229  14.0501845  12.0442331
  71.4427376  14.5899963  12.3791969  72.0064497  13.1860924  12.4268436
 105.5041122  31.3506770  82.1972942 106.3089943  30.9974957  81.8182659
 105.6188488  31.2474775  83.1419754  13.7829196  74.1158056  15.8596456
  14.2602396  73.3043146  16.0324991  13.2363868  73.9150238  15.0998962
  34.4018960  77.3390961   7.2034985  34.5397830  76.8252897   6.4077479
  35.1739454  77.9019022   7.2619861  15.4452217  54.0808201  12.9433775
  15.2976036  54.1783428  12.0026708  16.3905275  53.9549112  13.0256963
   9.0430176  36.7093587  20.5368805   9.8560411  36.7869997  21.0360742
   9.2656988  36.1349487  19.8042834  10.2615166  51.4343977  15.2620399
   9.6129817  51.7222929  14.6195829   9.7729862  51.3685846  16.0825503
  63.9181376  53.4494829   2.4563092  64.8446703  53.6640453   2.3480064
  63.7051916  53.7470102   3.3408228  48.0120373  65.5183029   7.8161407
  47.7329922  66.0351658   7.0603532  47.1969891  65.2830124   8.2594973
  37.7987695  60.8403301  33.6632156  38.1239080  60.7538605  32.7670908
  38.5822034  60.7764721  34.2094636  19.1810095  37.2130156   8.6415505
  18.9369047  36.2890100   8.6950374  20.1293588  37.2030997   8.5120595
  40.0785446  55.9850454   7.1464795  40.5712652  56.4931536   6.5020537
  39.7788286  56.6330719   7.7840251  31.6335464  57.2110510  16.9947481
  32.4142528  56.6734505  17.1278393  31.7307973  57.9325724  17.6161814
  23.9431381  46.6491079   9.6565741  23.4715700  46.8182278  10.4722059
  24.2576742  45.7492876   9.7439182  83.0783081  90.1789093  80.6191730
  83.7487793  89.7977638  81.1861134  83.1276512  91.1196518  80.7888699
  72.9853153  68.1769085  19.3303835  72.9132414  67.9566193  18.4016693
  72.8553438  69.1247034  19.3625128  65.4941940  77.4314690   7.9817492
  64.9127007  78.1568384   7.7538568  65.9133291  77.7074862   8.7968403
  56.6767931  84.7327709  90.4880238  57.4013901  84.8766327  91.0967064
  55.9228516  84.5560360  91.0506725  85.4727364  97.0409393  81.7293072
  85.0862598  96.6912365  80.9264565  85.9506226  97.8202057  81.4453888
  67.1721792  80.7858467  11.1011958  67.2507095  80.6085682  12.0385528
  66.6386557  81.5790081  11.0513198 103.5031605   8.0356520   6.8552417
 104.3807602   8.2843614   6.5650845 103.2102776   8.7726438   7.3912418
  33.5441637  51.4174080  52.1922207  34.1318798  52.1716642  52.1484423
  32.6982021  51.7555809  51.8985939  74.7026873   2.2784713  41.8874931
  74.8473406   1.4626625  41.4081573  75.4381752   2.3313019  42.4978161
  17.9882514  30.0980377  84.7966957  18.9113629  30.0292563  85.0403404
  17.7230561  29.1981959  84.6064663  39.4514775  97.5196362  45.7301617
  39.9877524  97.5165939  46.5230227  38.8579154  98.2616997  45.8453274
  43.2981873  91.6963673  31.2775707  43.2795572  90.9404087  31.8644381
  43.9020681  92.3097801  31.6962409  13.9222372  37.0396018  14.4901550
  13.3326733  36.2940574  14.6033323  13.3946931  37.8009367  14.7316027
  16.5777147  20.0225735   7.5290340  15.6537628  20.1848292   7.3387295
  16.9460940  19.7297096   6.6955113  66.7768574  36.4568138  12.1091568
  66.7831278  36.9653726  11.2982547  65.9623194  35.9554935  12.0711768
  26.7134595  56.0726261  20.8494091  25.8141875  56.3674402  20.7057881
  27.1371841  56.8052864  21.2965107  61.1465740  65.5048084  19.2549396
  61.4614725  65.8953857  20.0701213  61.7412806  65.8393908  18.5836649
  45.2383089  54.1241932  29.2902255  45.0086880  53.4046936  28.7021542
  45.9051752  53.7561798  29.8699522  37.5510907  46.1716795  36.7316365
  37.4969816  46.9691420  36.2049842  37.5618649  45.4612970  36.0901761
 103.3138466  85.6863594   7.1647763 103.2401752  84.9449825   7.7657408
 102.4216652  86.0254288   7.0922083  42.9750490  55.7559109  39.2990899
  42.7744102  54.8794842  39.6275043  42.7366114  55.7249022  38.3725810
  87.3414135  13.0238223  66.0955667  87.0811844  12.6390898  66.9325209
  87.8573418  13.7934482  66.3358402  42.6299620  45.6740189  52.2553778
  43.2134390  45.0114536  51.8855286  43.1863594  46.4438152  52.3739815
 113.3598614  65.2729940  12.0858741 112.5756264  64.7716904  11.8624842
 113.0885124  65.8295298  12.8158510  24.4166923  44.1372538  19.8927093
  23.7566328  43.4673262  19.7145307  25.0958538  43.9850903  19.2355812
  60.4828167  72.2113276  24.2576027  60.1853085  71.4036894  24.6764517
  59.6765518  72.6767921  24.0350771  29.0413451  54.4515562  14.9281549
  28.8891172  55.3316975  15.2722692  29.9476457  54.2550993  15.1653314
   3.4359202  38.4413266   8.3830529   3.3199194  38.6876607   9.3007100
   2.9544276  39.1081095   7.8933638  27.6581788  68.7427235   7.1898443
  27.6853490  68.8298559   6.2370056  28.4809828  68.3080912   7.4141705
   6.7552745  93.4282780  27.6950431   6.5916818  92.5046062  27.8855729
   6.0280478  93.8911152  28.1111574  47.4410152  35.6131124  30.2045465
  46.4947414  35.4690480  30.1979780  47.8077221  34.7820282  30.5063009
  31.8123746  45.5651522  27.7731633  32.5756049  46.1225796  27.6215363
  31.7967319  44.9711561  27.0227242  50.8531046  72.8405046  24.9254036
  50.1795101  73.3629942  24.4900775  51.6676521  73.0865765  24.4870114
 111.8425465  98.8468742  32.8811216 111.0527039  99.3597221  32.7097487
 111.5459061  97.9369736  32.8631163 106.2602425  67.3856449  54.2266703
 105.8432961  68.1982756  54.5130730 105.8992672  67.2256327  53.3547068
  34.8097372  55.3992987  10.7394516  34.2901325  55.7199335  10.0022721
  34.5641613  55.9665823  11.4702845  18.5610628  26.4795756  19.5472252
  18.6379671  25.7674623  18.9122355  18.5321403  26.0404301  20.3972530
  30.3504944  89.2259121   6.4395398  30.8913589  90.0117302   6.5181625
  30.9731150  88.5006142   6.4896977  18.3051801  24.6237612  41.0667515
  17.7286279  24.3456197  41.7784119  18.0333126  24.0940070  40.3173018
  11.8778217 100.8186245  35.9627724  12.0349729  99.9568939  36.3487101
  12.0646811 101.4356327  36.6703176  26.7497683  84.9623394  38.8865042
  27.2935128  85.5370808  39.4252491  26.8957520  85.2653599  37.9903460
   9.8352134  92.8645706   5.5078155   9.9834865  92.0617104   6.0074836
   9.9437958  92.6014137   4.5939291 109.5140648  46.2987661  22.8734493
 108.8691139  47.0053148  22.8410435 109.6680450  46.0727644  21.9561458
  19.8219490  10.3745151   7.7050233  20.0776291  11.2968397   7.7183467
  20.2263618  10.0025165   8.4887958  23.1945705  43.7836981  39.4177938
  23.2591796  44.5983934  38.9194751  22.7025723  44.0219259  40.2035522
  45.9825277  40.7981920  88.4084988  45.2858305  40.1461744  88.4841347
  45.6634951  41.4141989  87.7489662  28.0895472  50.2430630  12.8987944
  27.3964953  49.7259140  12.4883509  27.8092003  51.1513519  12.7863109
 108.3618069  18.3988059  88.5102177 107.5301743  18.3875763  88.9840221
 108.2099724  17.8419340  87.7466297  39.0476131  52.6701784  14.0167487
  39.5351291  53.3080959  14.5379210  38.8012028  51.9884205  14.6418262
   7.6086670  11.3559020  82.2519016   7.6716894  10.4013765  82.2181320
   8.3718824  11.6637707  81.7630768  46.9876766  60.2553892  35.6204724
  47.0589399  61.0300255  36.1782336  47.5901604  59.6225643  36.0113454
  76.2474072 107.4643903  91.0032654  75.5376093 106.8725380  91.2525272
  76.7944167 106.9468685  90.4123497  80.6799507  20.0029778  83.4136963
  81.3483238  20.6401062  83.6658382  79.8637295  20.5029082  83.4048271
 104.9800682  15.1721585  58.9895868 105.7031345  14.6154034  58.7007570
 105.0129414  15.9296989  58.4053898  29.2955661  94.0591145   1.3737784
  30.1411486  94.4602108   1.5746394  29.4592261  93.1173515   1.4240129
   4.7389150  51.1027336  11.6675818   4.3638989  51.6140318  12.3846412
   4.4420776  50.2075100  11.8309498  23.2190824  32.6458573  58.9921284
  22.8055096  32.3061419  58.1985378  23.1274891  33.5960817  58.9219856
  89.7795582  94.6989155  89.3548965  89.6010017  94.7002316  90.2952957
  89.0039539  95.1005554  88.9632797  91.0264683   9.2848152  55.0239277
  91.8859291   9.0820247  54.6545601  90.5417347   9.6804392  54.2995310
  23.4405255  93.2307720  20.6932926  23.5746717  92.6757240  21.4615083
  24.2096782  93.8001442  20.6719303  44.7667122  45.1389980  17.5993538
  44.5134306  44.2519855  17.3438406  44.5226145  45.6828880  16.8504667
   7.9241258   2.4142331  28.2952952   7.3197621   1.8322890  28.7560749
   7.8783768   3.2388452  28.7791896  21.8445158  36.3507295  79.5823240
  21.1253190  36.2254262  80.2014256  21.6768670  35.7132578  78.8882351
 107.3685741  58.5599899  17.3840666 108.1832695  58.3739185  17.8508568
 106.8347168  57.7758837  17.5121224  78.2645988   6.8323451  72.0976162
  77.9346180   7.6308531  71.6856289  77.4997663   6.2598789  72.1571350
  40.3807497  36.5339947  23.6147237  41.1790657  36.3031101  24.0897155
  40.1119089  37.3719668  23.9912295  51.9616079  88.1307983  30.4511929
  51.8031836  88.9873791  30.8479357  52.1676779  88.3247948  29.5367885
  41.0318375  59.0359831  19.1270328  40.6036854  58.8689280  18.2873833
  40.4955578  59.7135878  19.5387185  37.8365231  75.2589417  24.5922256
  38.4200430  75.1098490  25.3362083  37.7004838  76.2063551  24.5806265
  57.9994822  75.8620262  14.4527376  58.1131506  75.4405308  13.6008835
  57.4213648  76.6044903  14.2773604  51.3636112  91.8671227  37.1177673
  50.5984879  92.0454121  37.6646066  51.7766857  91.1055851  37.5247717
  87.8979492   2.0933725  85.7810783  88.4250450   1.3853581  85.4107857
  87.3832703   1.6735372  86.4703369  55.0999689   1.6755384  33.9264393
  54.4952679   1.4769812  34.6413827  54.8494625   2.5530639  33.6376023
  15.8106530  39.0913272  90.3512669  15.0892138  38.9160991  89.7470760
  15.6746328  38.4758544  91.0716343  28.8295650  57.6483870  69.5712519
  29.2473817  56.8538141  69.2391157  29.1297793  58.3408689  68.9825439
  47.7574396  97.5925064  26.1707640  47.5961399  97.3134708  25.2694583
  46.9433594  98.0186749  26.4388847  22.2624278  63.0452442  36.5406871
  22.8123760  63.8268995  36.4878035  22.8280735  62.3336792  36.2407637
  34.3834019  61.1818314   3.8043734  35.0914907  61.1996603   4.4482097
  34.7720289  60.7706833   3.0322617  63.7228441  57.2181129   4.0806639
  63.3259249  57.9618692   3.6273208  64.4402361  56.9443560   3.5091451
  69.1031313  87.7525997  54.1731691  69.3585730  87.8181553  53.2530165
  69.8124123  87.2582626  54.5840073  49.3220711  79.0444613  37.0153522
  49.5366478  78.8818216  37.9339051  48.4756088  78.6161709  36.8876696
  60.4446316  92.2149563  10.8600843  61.1885548  91.8741417  11.3567269
  59.9859762  92.7853680  11.4769244  51.1271048  77.4639511  11.8800974
  51.4550400  76.9492340  11.1427021  50.7110977  78.2248497  11.4748728
  11.1657655  26.1980319  77.7940845  10.6120265  26.2222242  78.5744810
  10.5507910  26.1016297  77.0669317  16.5770209  70.5671644  77.3371410
  17.3593974  70.2018881  77.7502918  16.6963291  71.5151691  77.3944521
  37.7088761  54.0975428   6.6624641  37.5419426  54.2692423   7.5892240
  37.9673171  54.9467516   6.3043028  44.5711136  86.5724945  11.1305332
  43.7643528  86.0835361  10.9684181  45.2508926  85.9009838  11.1871564
  23.4124756  49.7365761  20.7130790  24.2956328  49.5016575  20.9978151
  23.0190873  50.1590443  21.4766216  39.4134378  99.0032291  38.3071947
  39.4820189  98.2677364  37.6984334  38.8398886  98.6845875  39.0041494
 111.3817310  88.1051350  14.8443866 112.3053169  87.8875542  14.9704599
 111.2304306  88.8521004  15.4235053  93.9402199   8.5355008   2.2030625
  93.1331730   8.0669010   1.9901668  94.5969963   7.8468275   2.3060384
  40.5517149  72.0569229  26.6916203  40.3763103  71.1308336  26.8584394
  41.1068487  72.0588732  25.9118438  69.0445232  93.2922363   9.5942223
  68.6858988  92.5489044  10.0790739  68.7918806  94.0584850  10.1092589
  40.0475025 107.3093033  17.7328634  39.1591620 107.6601791  17.7958298
  40.0322485 106.7576504  16.9507658  60.4711008  67.1225071  28.3097672
  59.6565008  66.6313124  28.2030511  60.2161217  67.9063988  28.7963200
   0.8759674  28.9719367  85.2807045   0.5595277  28.8924932  86.1805916
   1.4057988  29.7691250  85.2826309  75.4657459  94.2763329  59.8407936
  74.8612690  94.8613834  60.2974749  76.0964012  94.8625088  59.4225788
  73.7272453  78.5831928  43.0653906  73.2286596  78.0215693  42.4719095
  74.4695854  78.8853741  42.5420856  28.6351585  84.0287495  33.8726783
  29.0845776  84.0643978  34.7170615  27.7272487  83.8206387  34.0931821
  45.3013182  66.0651350  14.6559668  44.4130754  65.7161999  14.7300816
  45.2389765  66.9547319  15.0037575  11.1088121  35.3162289  88.9452457
  11.7448568  35.5094075  89.6339893  11.6340888  34.9671841  88.2251835
  55.8051205  64.7156811  23.6372066  56.4086580  65.3798962  23.9700603
  55.7410383  64.8985004  22.6998138  33.1042957  69.1196203  21.0152769
  33.0503225  68.1701851  20.9062290  33.7361693  69.2438269  21.7234707
   2.2036821   2.1016890  72.9998636   2.5828436   2.9802269  73.0251598
   1.4984059   2.1636650  72.3556805  42.0929623  60.1122332  50.9600496
  42.1862650  59.5078516  51.6964245  42.8845739  59.9786472  50.4387712
  15.3974450  84.3062878   7.1331120  15.5409992  84.8093319   7.9347211
  14.8620617  83.5625839   7.4096918  62.8473473  16.6654706  75.7705688
  61.9695663  16.2867486  75.7226324  63.0570698  16.8992019  74.8663473
 106.6390228  70.5228376  35.7352972 106.8727398  70.3614044  34.8212147
 105.6859303  70.6110048  35.7268429   8.9212865  76.9031429  17.3234427
   8.5458124  77.4561834  18.0085671   9.7627282  76.6182852  17.6798999
  27.0593619  83.6077785  31.3062835  27.9596305  83.7123585  30.9983683
  26.9818521  82.6751709  31.5074682  32.0204091  37.2575116  27.4646711
  31.9320178  37.5249004  28.3795047  32.4792242  36.4183450  27.5036716
  43.6961126  56.4368391   4.7750556  44.3434525  57.0837545   5.0555694
  43.3326244  56.0924339   5.5908346  80.2067375   5.9254104  85.7973385
  80.1105881   6.4313120  86.6042137  79.3894100   6.0749090  85.3220844
  21.2883401  92.4169350   8.0320764  21.7593169  91.8991470   7.3791492
  21.7241764  93.2690907   8.0218089  38.5374784  69.4070005  10.5735564
  38.4117031  70.3310871  10.3579772  37.6840687  69.1181612  10.8968091
  48.6385775  64.9557495  64.4011402  48.8983202  64.0504169  64.5718288
  49.2180157  65.2421141  63.6951065  64.7888851  77.2122860  13.2368290
  64.8238707  76.5881062  12.5119770  63.9958143  76.9762945  13.7180543
  53.4163475 107.5268269  17.2043252  53.3960056 106.8965054  16.4842463
  54.2536736 107.3663902  17.6394951  64.4843531  11.5636265  12.3837113
  63.6372852  11.1681306  12.5893641  65.1174259  10.8590055  12.5214100
  19.1954410 102.6648235   3.6410329  19.9294949 103.2783699   3.6718896
  18.9886475 102.4923706   4.5595807  60.7936811  75.4474115  23.7787080
  60.9133625  74.6168089  24.2391491  59.8448753  75.5704737  23.7494087
  32.8699899  65.8856058   7.7016383  32.4466825  66.0742188   8.5391754
  32.7510571  64.9436569   7.5799203  42.0180082  29.0762520  30.5927229
  42.5700808  28.3327794  30.3504515  42.2205925  29.2345953  31.5147424
  17.8128946  88.0775833  22.2967935  17.6177156  88.7006855  21.5968800
  18.7281513  87.8362751  22.1542931  11.8936908  47.9588509  70.2972651
  11.2836146  48.2713366  69.6291399  12.0430279  47.0400333  70.0743103
  50.5319452  58.6650991  10.8011353  49.7961044  58.1489182  11.1302733
  50.1282787  59.3258858  10.2384222  36.7223334  58.1692648   2.7740684
  37.6136088  57.8203964   2.7863878  36.5560031  58.4334373   3.6789322
  61.9140863  98.6706734  59.7889996  62.2974157  99.5062447  60.0556755
  62.5487089  98.0137730  60.0752974  25.0420928  80.9917927  26.3173509
  24.9053025  80.0589371  26.4825749  24.9471402  81.4035892  27.1762061
  32.2692227  83.8855934  29.4802523  33.0126214  83.8440609  28.8786983
  32.6668477  83.9237118  30.3501201  40.0240517  54.4310904  12.0245481
  39.7067547  53.6408663  12.4617004  40.5652618  54.1059113  11.3051164
  39.2059898  78.9838791  21.5170264  38.2961893  79.1536283  21.7613173
  39.5444059  79.8372364  21.2459397  41.7583513  99.2203045  26.0488248
  40.8060265  99.1269493  26.0730958  41.9210005  99.8296738  25.3287935
 111.1675739  72.9843140  18.2385600 111.7770672  72.3541975  17.8542340
 111.3475990  72.9492807  19.1780257  49.4467592  66.3560057  10.8578396
  49.3642092  67.1958208  11.3096428  50.2122974  65.9432173  11.2575746
   7.2758263  33.1795502  83.4944725   8.0034906  33.4568477  84.0511036
   7.6631957  33.0825114  82.6245499  19.9811661   7.3210263  72.0530319
  20.6832004   6.6863066  72.1962452  20.0344062   7.5307226  71.1206007
   6.0663843  22.0263600  88.2246780   5.9627658  22.3894715  87.3451138
   6.3626558  21.1278200  88.0794907  45.8592224  99.0469360   0.0220448
  45.3816128  99.5252609   0.6997875  46.7748690  99.0917873   0.2973832
  60.7163191  91.9787025  32.1460986  61.3127184  92.3467827  31.4941335
  59.8423767  92.1532154  31.7968106  46.1393309  90.4183483  10.7079709
  45.2605963  90.0885105  10.8957565  46.7154360  89.8967457  11.2667739
  45.5203342  94.8939514   5.9893012  45.4847717  95.6440735   6.5828323
  44.7960091  94.3335915   6.2678427  65.1548672   1.2568729  40.3918552
  65.1243877   2.1972334  40.5679941  66.0886145   1.0474356  40.3699589
  61.3695717  69.2747593   3.8852772  61.4519691  68.3786774   4.2115849
  61.5674829  69.2086267   2.9510993  37.7039886  73.7998915  45.0159168
  37.0062637  74.3503189  44.6603346  37.5054407  72.9217291  44.6908951
  51.9953060  75.9076500  27.1035123  51.6587639  76.2245464  26.2653327
  52.9470968  75.9423447  27.0079947 111.1270142  26.2126613  72.2193146
 110.3191185  26.6570401  72.4763441 111.6839314  26.2597895  72.9963923
  12.7731216  32.8273606  14.4527698  11.9959927  32.2689176  14.4737828
  12.4323499  33.7057567  14.2838597  13.8038945  93.8832760  45.6562948
  13.2473826  93.1443214  45.4103804  14.5898080  93.7802219  45.1196814
  33.3921814  87.9695034  27.5980854  32.9405403  88.1070900  28.4307480
  33.3279300  87.0270348  27.4436259  24.1699290  15.2459335  88.2822418
  23.5860467  15.4619622  89.0093231  24.9593306  14.9044466  88.7023163
  16.1968672  38.1173635  22.1127844  16.4312696  37.6418853  22.9097843
  16.6595376  37.6555729  21.4135575  30.8123899   6.7648780  81.5657043
  31.0156798   6.8927848  80.6391335  29.9982619   7.2496539  81.7014408
  20.9048271  79.7448254  40.7227182  20.4959321  80.4340744  40.1992941
  20.1747799  79.3237352  41.1765289  34.2373562  99.1319561  10.4375577
  33.6145878  98.8157749   9.7830176  34.0420485 100.0651264  10.5228758
  53.2679319   4.1346779   7.6823485  53.7206697   3.4672010   8.1978422
  52.3576832   4.0863690   7.9744923 107.3117256  27.3985863  88.7987804
 106.5767097  27.5597739  88.2071686 106.9658756  26.7877865  89.4495773
  53.5134792  44.6686363  16.9558442  52.8703356  44.9141169  17.6209295
  53.9714766  45.4842997  16.7529559  58.7856722  86.4496040  17.0289254
  58.4872580  86.5742016  17.9298449  58.0356741  86.7032051  16.4909506
  35.8114028  67.3538923  44.3415880  35.4935145  68.2469797  44.4741488
  36.5616584  67.2767496  44.9309921  68.6657858  57.3933887  12.0476556
  68.7314606  56.6182137  11.4899600  67.8278303  57.2931862  12.4993396
  47.9972744  84.1122150  14.6141291  47.2430801  84.5818901  14.2580020
  48.7270069  84.3681431  14.0500164  28.6333656  84.9914742  27.6875782
  29.1464663  84.1834641  27.6787257  28.6568356  85.2801132  28.5999179
  52.3784399  40.9634256   5.3441083  53.2645369  40.6422281   5.1770872
  51.8062162  40.2851152   4.9853787  20.8185935  83.1241417  17.5052667
  20.7080746  83.4828472  16.6247296  21.0859847  82.2162533  17.3622191
  36.4922214  90.5111885  31.1707830  35.6405449  90.5761528  31.6028237
  37.0139980  89.9577808  31.7519212  69.0584087  86.3254642   0.8954687
  69.8461485  86.8547726   0.7708865  68.5417128  86.4749336   0.1036871
  99.8432636  67.3576593  92.0192146 100.4080391  66.6936874  91.6237450
  98.9539146  67.0426559  91.8577385 103.9513302   7.9757756  11.8494010
 103.4733105   7.8083014  11.0371923 104.8056698   8.2982039  11.5623724
  16.0850251  87.3249340  11.1940837  16.9893408  87.6338577  11.1392021
  15.9832716  87.0421219  12.1028709  38.8201952  28.3018589  63.9274836
  39.1618228  28.1056714  63.0551147  39.3149567  29.0706062  64.2111540
 104.4489288  92.4296665  34.3470335 104.2688656  93.0948448  35.0113750
 103.7966537  92.5896263  33.6649895   1.5195110  44.6332788  73.2814693
   2.3276475  44.6965742  72.7724075   0.9705057  45.3431988  72.9485464
  12.2439444  60.6433344  17.1708429  11.6445613  61.2009335  17.6668835
  12.8881288  60.3509998  17.8156674  15.3410745  46.6613865  36.2648010
  14.8988283  47.3361015  36.7799735  14.6938455  45.9611320  36.1812901
  74.3624067  96.0814285   8.4577513  74.7952414  95.7244015   7.6822406
  73.4391642  95.8571625   8.3413345  48.6746359  92.8882122  27.8717613
  48.8899660  93.7812138  27.6026893  47.8857470  92.9825592  28.4055972
  55.6422234  59.6024561  25.9001970  55.7746792  59.1024208  25.0948095
  55.7523727  60.5158281  25.6358933  73.1730986  60.9839344  21.6013241
  73.7418795  61.6506195  21.9863629  72.2961903  61.2084293  21.9125652
  21.9367385  60.6551170   2.5574806  21.3243771  61.3877392   2.6246548
  22.7693105  61.0603333   2.3148797  58.1420040  95.6641388  46.3410521
  57.6188231  94.9555779  45.9662867  58.9542723  95.6557560  45.8347034
  50.1173401  24.7826982  11.0839152  50.2284622  25.2317047  11.9219339
  50.9743786  24.3963885  10.9036803  37.4957776  85.1616859  13.0852544
  37.4054456  86.1144733  13.0684745  38.2858086  84.9869633  12.5738335
  75.1909924   0.4247578  26.8716121  74.3912268  -0.0942306  26.7864180
  75.5992651   0.1052630  27.6762676  12.2466719  99.6230316  41.2591505
  12.0282936  99.6156120  40.3272247  11.5040636  99.1923904  41.6826010
  51.8860388  43.1826830   6.8482882  51.0024786  43.1339979   7.2132301
  52.0084906  42.3434258   6.4045787  10.7375097  48.6782551  17.5559187
  11.1068022  49.2569447  18.2229805   9.8048955  48.8933563  17.5419331
  29.8890758  28.7622356  84.9034786  29.4269133  28.7144661  85.7403469
  29.7254872  29.6517181  84.5899582  54.1115570  77.0767498   2.3023418
  53.6943340  76.7321825   3.0919194  54.7134590  76.3848495   2.0280930
  37.5325155  75.9999132  13.1914818  38.0507612  76.6234779  13.7002218
  36.7296028  75.8848858  13.6997449  64.1045761   8.4625643  42.2238493
  64.2862654   8.1658489  41.3321161  64.7185469   7.9711521  42.7695513
  36.9357705  96.5115738  10.2312040  36.8825078  97.2599888   9.6368402
  36.0793686  96.0896015  10.1623237  99.7468662  27.5638866  75.2471304
 100.4740143  27.9023719  74.7247171  99.4289875  28.3232570  75.7355356
   3.4395343  44.9220514  70.2266073   2.7079573  45.3755522  69.8078394
   4.0671456  45.6158590  70.4290009  28.4380436  49.1004658  26.3708520
  29.2756605  49.5080280  26.1505723  28.0276704  49.7118759  26.9824076
  31.1626840  40.4701900  23.4362245  31.9376826  40.6386375  22.9002786
  31.4841557  39.9322796  24.1597843  26.5731692  96.2878227  31.1019015
  26.4230943  97.0020866  30.4826045  26.0680175  95.5551338  30.7494593
  26.3455987  93.9909458  23.4967208  26.4026403  93.2229519  22.9282403
  27.2497702  94.2932129  23.5823774  14.4245085   0.1086590  27.0835567
  13.7813506   0.7979653  27.2492146  14.6663317  -0.2075126  27.9540682
  36.1808515  73.1290054  36.0010719  35.3419852  73.5821915  35.9164858
  36.5897417  73.5237503  36.7712784 109.5883560  56.2559891  71.6419840
 108.9341354  55.6803799  72.0380878 109.1094303  56.7315245  70.9632158
  48.3970070  66.2567854  60.1219320  48.0587864  67.1279287  59.9146891
  49.2088604  66.4228010  60.6010628   6.4549333  57.7263355  78.6164904
   6.6421586  57.0083618  78.0117655   7.0530635  58.4250021  78.3512831
  33.0489016  70.3611183   7.6230794  33.5185385  69.5472002   7.8053051
  33.0901623  70.8505440   8.4446597  53.9636040 101.8183994  79.8915052
  53.5200167 101.2301350  79.2804384  54.8636961 101.8643188  79.5690775
  49.7982883  84.8552895  12.9404151  50.7434988  84.7881794  13.0757129
  49.6870852  85.6484795  12.4162781   9.9439156  87.9971886  16.9822586
   9.0739721  88.2980442  16.7197323  10.5085230  88.2226086  16.2429094
  40.5662537  77.9495573  23.6453342  39.9959421  78.1598043  22.9058933
  40.6991291  78.7862921  24.0908074  58.5553503  74.2317963  16.6714537
  58.2913208  74.8563671  15.9958541  58.2670975  73.3821344  16.3379693
  19.7968698  80.1386833  14.5191729  19.3580556  80.6528759  13.8414681
  20.3880596  79.5610523  14.0364051  88.7353420  20.1920843  84.8454285
  89.2529297  20.6699300  85.4934978  88.9029312  19.2695606  85.0380230
  39.3033338  66.3003969  12.8886938  38.5028625  66.2348557  12.3679411
  39.1989470  65.6389284  13.5726488  31.0575747 102.5742340  16.2640321
  30.8954620 103.4462261  16.6239977  30.9423065 102.6797295  15.3196716
  23.8623929  93.8839436  31.7463112  24.2448044  94.0440178  30.8835411
  23.0438018  94.3800449  31.7412496  83.7487984   1.6732925  23.1389093
  83.2116508   2.4571124  23.0234504  83.1235123   0.9863036  23.3697701
   9.3569583  45.5591917  10.2051878  10.2370203  45.2118158  10.3502810
   9.4374353  46.4966059  10.3812754  90.2826309  24.0263891  81.3102341
  90.6031704  23.1884456  81.6438961  90.8471012  24.6801782  81.7227364
  28.9171767  67.2504807   1.8337131  29.6245193  66.6095972   1.7618655
  28.5161400  67.0702648   2.6839620  84.5114040  14.8189759  49.2442703
  85.3979111  14.4720829  49.3442822  84.0625191  14.1748548  48.6966896
  39.4173312  94.3588161  23.0914307  40.0819492  93.9479065  23.6443043
  38.8486910  94.8232937  23.7055492  78.1977510  70.3964424  11.2836194
  78.2187319  71.3513422  11.2207210  78.8059759  70.1897287  11.9932401
  33.6795259  85.6446934   3.7730962  32.9003906  86.1976719   3.7148213
  33.6286545  85.2501678   4.6437281  81.6375095   4.7830742   0.1011953
  82.3522634   5.3489464   0.3930005  81.9308115   3.8973110   0.3147992
  65.8711243  80.2873325   4.5314965  65.7493830  79.3380117   4.5455557
  66.1970663  80.4999828   5.4060096  28.7346315  57.8357887  21.9647861
  29.2568374  57.1110630  21.6208267  29.3539667  58.3549309  22.4777651
  25.2061868  96.8566132  61.2968731  25.8807468  97.2232342  61.8685341
  25.4274726  97.1837139  60.4249382  41.4907551  74.4638824  29.8182273
  40.6715536  74.0532207  29.5416403  41.8271780  73.8883877  30.5051494
  32.4175382 102.6490879  26.4045739  31.8857098 101.9218731  26.7279148
  32.1810222 102.7263451  25.4802775  74.7682428  63.3908749  21.5414095
  74.0219116  63.9345217  21.2890792  74.9803114  63.6732435  22.4310875
  43.4786177  54.4297504  18.2260919  42.7270699  54.9608040  18.4895134
  43.1099510  53.7647057  17.6446855  16.3625634  44.4048309  11.1014330
  15.9941709  44.1284466  11.9405591  15.8842015  45.2042246  10.8815062
  10.0784004  82.1024609  25.2306914   9.4886345  82.4776840  25.8846116
  10.9242821  82.5145149  25.4065466  61.3493681  82.2336102  15.9645212
  61.8929911  81.9271564  16.6903257  61.5504217  81.6348839  15.2452612
  69.0859652  67.5391626   2.2998992  69.7081470  68.2605839   2.2067992
  69.4341803  66.8483162   1.7362396  46.0717630  56.9505739  16.5676892
  45.5129051  57.4150038  17.1907604  45.5065727  56.2718773  16.1986899
  18.0953145 100.6440258  10.7871294  17.9454434 100.0404167  11.5147436
  17.6296449 101.4418221  11.0379541  28.6546135  98.7082863  20.6608129
  29.3851256  99.3206120  20.5734277  27.9557085  99.0921021  20.1312375
  21.6156697  19.4162214  37.7396083  22.1873379  19.6728814  38.4631777
  21.1112499  18.6786938  38.0828953  56.3161325  53.1892157  11.1149192
  56.3572025  52.2426128  11.2508821  55.4329109  53.3450508  10.7804608
  37.9727936   4.4950637  43.0913162  38.7147403   4.0436792  43.4938097
  38.0385995   5.3952670  43.4099627  68.6534739  62.2749519  34.5341301
  68.2330656  61.9169998  33.7522340  68.7919664  63.1997156  34.3295240
  12.8618455  64.5124960  61.2524652  13.7969375  64.6593189  61.1100721
  12.8209805  63.6991692  61.7555189  41.5685892  85.1170540  14.4132471
  42.4390507  85.1826668  14.8059642  41.1124611  84.4680214  14.9489164
  69.5131969  89.6675968  14.3229604  68.6955404  89.6687222  13.8252974
  69.8880529  90.5349064  14.1697085  14.1067564  97.6540756  41.5171385
  13.4172010  98.3179474  41.5221500  14.9050164  98.1394577  41.3087702
  10.4135835  12.7968740  47.4118805  11.2271881  12.4928069  47.8141546
  10.4247439  12.4179268  46.5329599  55.6640100  49.7379351  31.4510179
  55.6046152  50.5634212  31.9319272  54.9851704  49.8026943  30.7792902
  43.4084225  69.6711636  42.3308945  42.5753021  70.1424789  42.3325777
  43.8867855  70.0329733  41.5849066  36.4790487  99.8296547  13.3272266
  35.7559609  99.2984867  12.9937136  36.0880232 100.3554821  14.0249658
  28.2499456  66.7106962  23.3318663  27.4013519  66.2689590  23.3633637
  28.8359571  66.1393309  23.8282228  98.8578415  74.6657753  23.4236145
  98.0601120  74.8452806  23.9212394  98.5579586  74.5580578  22.5210094
  26.5558362  77.7019882  14.7231436  26.3317418  76.7732286  14.6646678
  27.3613596  77.7865934  14.2130399  36.3336968  97.4186325  30.5704284
  36.7351985  96.8401814  29.9220324  35.7113171  97.9452133  30.0688386
  63.6981058  50.4312038  36.1012077  63.4024048  51.2220383  36.5521860
  63.7806034  50.6947851  35.1847196  79.5973206  68.8100910  42.5120687
  79.0665579  69.4548035  42.9799128  79.6229744  68.0519676  43.0958700
   9.0444446   8.1620759  89.7700977   8.7016153   7.2973460  89.5443916
   9.6678579   7.9955101  90.4770947  10.2068698  68.8007641  14.1692185
   9.9034959  69.7019482  14.0593827  11.1124313  68.8875008  14.4669878
  22.0460987  81.2029362  11.5930259  21.2108827  80.8274174  11.3143957
  22.1887183  80.8458328  12.4695945  34.2701697  84.5967007  10.1530993
  33.9796329  83.7529564   9.8068225  33.6355901  84.8056030  10.8385909
  69.2851162  91.8414974  21.7124677  69.4863987  91.6034698  22.6174855
  69.8325634  91.2602806  21.1845231  60.6134892  99.0905285  56.0941792
  60.0973749  99.5421219  56.7619514  61.0401058  99.7939587  55.6048822
 102.3594189  61.1972189  86.6771221 101.7545033  60.4562759  86.7134094
 102.3961735  61.4312172  85.7496929  62.2081614  80.2624798  38.6599970
  61.3028145  80.3120708  38.3532071  62.3465633  79.3343496  38.8488340
  99.5191097  26.5399098  88.6332321  99.6438122  26.9969320  89.4649792
 100.3411484  26.0701585  88.4924507  64.4216776  72.0676088  88.5948372
  64.1447306  72.5199699  89.3916416  64.2671013  72.7008581  87.8938866
  55.0531769  34.6824527   4.2355588  54.4182825  35.3923225   4.3316135
  55.8990479  35.1252556   4.1673461  61.4285135  86.7851257  15.8053160
  62.0599413  86.7384148  16.5231931  60.5752468  86.7020130  16.2310636
   8.9469761  51.0337496  30.9801459   8.8369352  51.8179035  31.5179372
   8.9168894  51.3551664  30.0790262  36.7909193  84.6965027  52.6671553
  35.8930182  85.0125217  52.5664711  37.2922373  85.4738712  52.9133511
  45.7140303  72.0779991  21.3339543  45.0956106  72.7382183  21.0210633
  45.3744173  71.2507963  20.9924531  75.6004572  78.1637859  15.6207716
  74.6720123  78.2559156  15.8346379  75.7481384  77.2183418  15.5971932
  22.8056455  13.8320625  81.9433403  23.1937146  13.1682873  81.3732243
  23.5514450  14.2212081  82.4000454  63.2346392  69.3262482  34.0319109
  63.3981228  68.9952374  34.9150515  62.8425932  68.5866404  33.5676742
  11.1864793  58.2408428  29.9160886  11.0580707  57.6360750  29.1853333
  12.1367753  58.3280897  29.9906278  42.2373629  63.4796715  12.3578405
  42.7190447  64.0086126  12.9937983  41.9021702  64.1136980  11.7238903
  25.6814218  84.1095257  34.7248077  25.6954694  83.1909943  34.4558334
  25.5584073  84.5959473  33.9096427  17.7115858  92.1483421  38.5328698
  18.4548044  92.2558498  39.1264176  17.2051740  92.9541874  38.6347651
  19.1298926  50.2366543  65.4534817  19.5441341  49.4355059  65.7741022
  18.4896040  49.9340343  64.8095179  26.2815213  23.4669352  17.4087179
  25.6094146  22.8012967  17.5550985  25.8038092  24.2963219  17.4205863
  28.8586926  80.5638599  13.8989198  29.2534614  80.8383369  14.7265959
  29.4314909  79.8664045  13.5800219  34.1311646 106.9819164  36.8738031
  33.8234329 106.0956097  37.0635176  33.3330393 107.5086403  36.8314767
  56.5661478  57.3564672  10.8504570  57.3349476  57.9266119  10.8397150
  56.3136196  57.3122454  11.7726851  36.4196634  47.1603298  10.8876753
  36.3137078  48.0276537  11.2785184  37.1415973  46.7642689  11.3757122
  33.4944201  77.8183174  13.9500642  33.7933564  77.0680571  14.4638550
  33.9032722  77.6996851  13.0927432  72.8118181  70.8333588   7.0514739
  72.7682209  71.5447140   7.6904613  71.9514799  70.8352375   6.6318935
  61.4144325  75.1305819  33.4363556  61.5358210  74.5943403  32.6528096
  62.1183825  75.7778645  33.3950186 105.4474258  25.4477215  87.0872593
 105.0115204  25.0698662  86.3234234 105.1704597  26.3639617  87.0922184
  71.6850185  33.4137583   6.9037223  71.3200045  34.1072369   6.3541025
  72.0587444  32.7880645   6.2831831  46.2035942 101.4592552  42.9464960
  46.4462662 101.9943905  42.1908665  47.0155907 101.0202026  43.1997395
  36.5457177  88.0668736  32.9729152  37.1401453  87.4326038  33.3736420
  36.2950373  87.6672077  32.1400571  81.6140556  21.4014816  66.5844297
  81.0988426  20.7952380  66.0522127  82.2782993  20.8510351  66.9991875
   4.2513657  54.2267418  82.4930382   4.4386646  54.3640041  81.5644360
   4.9516934  53.6486816  82.7957344  81.4145851  99.3669891  16.5665233
  80.6882191  98.8517666  16.2155628  81.7134571  98.8712978  17.3288846
 103.6937237  58.3488750  19.6655035 103.2644558  58.2870817  18.8121915
 103.8476086  59.2855263  19.7889376  35.0926828  87.8743744  30.5671287
  34.2230105  88.2362843  30.3970551  35.5510068  87.9489136  29.7301006
   4.6478868  47.5274944  87.6354599   5.4758066  47.0809221  87.4584007
   4.3628296  47.1776915  88.4796238  77.7303219  42.2758436  13.8947093
  78.1662750  41.6853857  14.5091510  77.1060658  42.7629232  14.4325686
  69.3855333  70.5227041  21.7794728  69.5515585  71.2901974  22.3268509
  69.5417356  70.8276463  20.8856940  28.8912678  73.5021305  15.6315196
  29.2563510  74.2855310  15.2201450  28.6753535  72.9253292  14.8987758
  53.5637999  89.3758106   3.9164993  53.3229160  88.8659096   3.1430602
  53.3850670  90.2833652   3.6702648  12.2814310  28.7221432  83.2269192
  11.9500947  29.6118402  83.1049061  11.5783298  28.1583786  82.9043484
  45.5138159  98.9982224  26.7534590  46.0854149  99.6058369  27.2228384
  44.6934986  99.0116978  27.2465444  96.4301968  57.0797396  70.2962828
  97.0333004  56.5272570  70.7935333  96.9285297  57.8769827  70.1165962
  26.7169929  98.0461502  18.2622945  26.2687659  97.2657394  17.9362679
  27.6215553  97.7638531  18.3976042  95.6680870   8.9590079  21.7563462
  94.7959614   8.9837217  21.3626266  96.1297989   8.2739234  21.2729073
  30.6967783  73.8988161   7.6068217  30.6946945  74.8046732   7.2975540
  30.1995444  73.4185505   6.9447523  75.4133558  71.3935041  20.8904171
  75.9438038  70.6931019  20.5105591  75.8617973  71.6183329  21.7056394
  84.6132660  28.0738664   1.5222566  83.7808704  28.0737090   1.9948481
  84.7269917  28.9807057   1.2377577 102.9484558  41.8690014  27.5655985
 103.4151077  42.4800205  26.9954109 102.2298622  41.5391541  27.0260978
   6.9986099  12.5646460  52.1481514   6.6912228  12.4893153  53.0515194
   7.8334844  13.0277514  52.2170687  29.6138310  16.0397160  81.9119930
  29.6042347  16.9934225  81.9931412  30.2812743  15.7530069  82.5353336
   3.2154325  46.7717886  20.1673102   2.3050414  46.7244673  20.4591656
   3.2250801  47.4834681  19.5272708  61.4086866  87.4975204  24.7851300
  60.9480095  87.1738243  25.5592299  60.7539177  87.4692535  24.0874839
  66.3561726  94.7947407  50.8585691  66.5899324  95.6471920  51.2258625
  67.1714926  94.2936516  50.8784580  23.5506606  71.3577700  24.6630859
  22.6644444  71.2829685  24.3091679  23.5845518  70.7064056  25.3636670
  59.8114395  69.8593569  25.8691406  60.0114059  69.1159821  26.4380312
  58.8865995  70.0441551  26.0327053  72.0091343   6.4042103  10.8155000
  72.7389574   6.7661548  11.3180792  72.1814680   5.4630876  10.7868481
  59.4162130  91.4741993  46.5072918  58.8082695  92.0530319  46.9672823
  58.9867306  91.2911034  45.6716728   8.8304603  12.0124209  85.9528446
   9.1685861  12.8673911  85.6865120   9.0498215  11.9470346  86.8822670
  60.4003143 103.7674809  22.2665215  60.7560158 102.9086876  22.0380950
  60.2668715 104.2030811  21.4246917  22.7707219  97.1383572  13.5266387
  22.0397043  96.8305111  12.9908442  23.5010529  96.5685368  13.2854915
  81.0860825  99.2340183  46.4255810  81.7973518  99.7798824  46.7607784
  81.3533020  98.3385468  46.6328478  75.7311153 105.1834202  20.7465267
  75.4034662 104.3192196  20.9956121  75.0550842 105.5386925  20.1694751
  61.4375401 101.4427471  35.2201462  62.3899555 101.3490486  35.2012134
  61.2122536 101.7751694  34.3512559  60.9281635  89.0176964  11.1537635
  61.4289474  89.7822189  11.4382803  60.3593063  89.3490314  10.4588902
  64.4627333  72.3462629  17.4077678  65.1416588  72.1321630  16.7678833
  64.9413919  72.5011396  18.2220948 111.0593224  10.5175257  22.6845479
 111.6153145  10.0139427  22.0899796 110.3479290  10.8403838  22.1314526
  42.5726557  97.0394230   7.3228765  41.9557905  97.4085140   7.9549223
  42.2234535  97.2961426   6.4694214  63.6392212  91.3323689   4.0623665
  64.0574551  90.6440163   3.5451826  63.1494808  91.8487835   3.4222841
  77.8727436  83.5798931  13.0110300  78.0252743  82.7037048  12.6570952
  77.2423840  83.9750862  12.4087894  73.1314898   3.5142532   0.1153023
  73.6433601   2.7428788   0.3586145  73.7848425   4.1606906  -0.1520492
  32.4292636  15.1556587  91.5959454  32.0885110  14.3408895  91.9650936
  31.6497636  15.6803489  91.4134312  89.3753910   8.0949599  39.5485067
  89.7373295   8.0546659  40.4337215  90.1418495   8.1638718  38.9792728
  14.8492515  81.5768051  28.7654519  15.0214016  82.3421478  28.2169652
  14.1081023  81.8362331  29.3128324  49.2093945  75.1998615  21.0884809
  48.5129404  75.7972717  21.3610315  49.0282393  75.0263453  20.1647353
  42.1232367  79.7884846  15.8915293  42.1972084  78.8370991  15.9665382
  41.2595797  79.9906778  16.2513137  36.4461946  59.9097919  21.7042780
  37.1211886  60.2796841  21.1352491  36.9087887  59.2601538  22.2336245
  31.6058898  83.3063984  44.4789696  30.7156467  83.1076241  44.7691154
  31.7613649  84.2018604  44.7793198  52.3200893  46.4396095  82.4637222
  52.3111200  46.4363098  83.4208679  52.4463320  47.3588419  82.2285461
  89.5706844  12.4740720  45.8665943  89.5308113  12.9304516  46.7070484
  90.2880478  12.8994620  45.3968477  83.2175159  80.9096718  56.8732405
  83.9126492  80.2516460  56.8761826  83.5378742  81.5991116  57.4548578
  48.8993502  71.9200087  33.9927030  48.2546997  72.6108122  34.1458225
  49.7182035  72.3883009  33.8301659  58.7379456  93.8765240   6.9497269
  58.7171459  93.7899971   5.9966725  59.1674423  93.0768394   7.2535068
  96.0072708  22.0316958  54.5036077  96.8899536  22.3999929  54.4653463
  95.7830143  21.8518162  53.5905981  18.7925136  36.4244533  69.1390324
  18.4210956  35.5849504  69.4101763  19.5454037  36.5509343  69.7164345
  77.8359413  69.0592480  57.2317934  77.4260330  68.2164335  57.0371819
  77.5677824  69.2543507  58.1297112  33.0362248  78.7290430   9.0961623
  33.3593798  78.1287289   8.4242839  33.2189822  78.2834864   9.9233913
  62.7557516  83.1893921  35.5871654  62.6769686  84.0118694  35.1038980
  62.0798826  82.6251888  35.2115202 111.3149261  39.4124007  77.3659277
 111.0613537  38.5832357  77.7714109 110.7786560  40.0697184  77.8093052
   3.2179543  78.6910772  35.2986002   2.8112420  78.0345964  35.8641529
   3.7696922  78.1848145  34.7023463  39.9774456  97.8437042  30.5188799
  39.8564124  98.7745667  30.3315711  39.4976091  97.3949528  29.8227429
  69.1031408   3.1245774   2.4934043  68.4600782   3.7558109   2.8162771
  69.7832251   3.6619493   2.0872661 100.3359604   4.0544567  11.5862656
 101.2485313   3.8102263  11.7405117 100.3062820   4.9945420  11.7640030
  50.0520468  12.0983541  31.0977840  49.2847061  11.7327213  30.6576395
  49.6918106  12.6063991  31.8246603 103.2545185   4.5330849  32.9215932
 102.8333187   5.3913575  32.9683900 102.9939079   4.1845575  32.0690417
  20.5406690  21.5499663  27.1145296  20.6866908  22.3226118  27.6603603
  19.9127162  21.8394995  26.4526534  40.2147055  57.2178268  29.3070102
  39.3802905  57.4803019  28.9183116  40.8582401  57.8068304  28.9130926
  44.9463034  81.9165707  10.8725202  44.0313911  81.7402840  10.6532228
  44.9512672  82.0057774  11.8255413 104.1159534  55.0418758  91.1977100
 104.4417953  55.9348440  91.3102818 104.7470951  54.4957542  91.6663742
  71.6181993   4.8089990  28.8089323  71.1166620   4.2709357  28.1964135
  72.5206327   4.7512028  28.4950757   4.5976636   8.4433788  28.3840609
   4.4950539   8.4925377  27.4336457   3.9801940   9.0902543  28.7254047
  60.0298929 100.8964443  17.3981202  59.2181826 101.3619900  17.1965647
  60.6568003 101.2161160  16.7492497  38.1525588 103.1066799  27.1698928
  37.1997643 103.0217361  27.2045636  38.3689642 103.0001545  26.2435818
  60.2325964  -0.2302075  28.1873083  60.5118799  -0.3558543  27.2804213
  60.6344700   0.5981600  28.4491014  73.9968729  77.3549414  11.6082656
  73.6059761  77.5837326  12.4515247  73.4339571  77.7788258  10.9604406
  29.3003011  86.4248562  79.2748022  29.4830680  86.0604191  78.4087658
  28.8350081  85.7264614  79.7352219  67.2148848  82.9142761  24.4069338
  66.5091658  83.5597038  24.3667364  67.2940922  82.5898075  23.5098958
  25.6961274  24.2887449  90.1373863  25.9441423  23.8229036  90.9359550
  25.1685810  25.0261307  90.4442883  45.2750158 100.7958412  49.9333239
  45.2382326 100.2861595  49.1239357  45.5807018 100.1743603  50.5940390
   2.3352680  33.1679893  87.1322346   2.1616530  34.0976381  86.9844341
   1.6394937  32.8858376  87.7259731  74.0842104   9.8741257  16.8274724
  74.2353344   9.7974074  15.8853960  74.6307325  10.6117761  17.0984280
 110.4514980  15.6698442   8.6594743 109.9671078  15.7998252   7.8441840
 109.9000454  16.0695684   9.3320441  49.6449900 102.2326946  36.8267441
  50.0833511 101.3853264  36.9045043  50.3395462 102.8756714  36.9695830
  61.9236612 101.7278385  11.0767972  61.3035822 102.4175930  11.3133919
  61.4269209 100.9154510  11.1743116 104.3175125  47.4530649  92.3119831
 103.9163685  46.7140150  91.8546963 104.5243549  47.1124935  93.1823063
  76.0992575  11.0316610  14.3274200  76.5162182  11.8435550  14.6158695
  76.8286896  10.4583478  14.0918970  19.2505300  72.3974419  69.5578766
  19.8551786  72.2835684  70.2911329  19.6636987  73.0630445  69.0078831
   7.0556730   0.8829702  24.6553206   6.3089079   1.4591970  24.8182178
   7.5926971   1.3599348  24.0225959  74.7770977  89.8079967   8.0129534
  75.2995968  90.4013252   7.4733371  74.9016762  90.1253510   8.9073801
  36.9041491 103.9172268  13.0954754  36.6757870 104.7974205  12.7965701
  37.1725345 104.0357971  14.0065968  62.3806143  98.5888481  12.1683705
  61.7724276  98.3770370  12.8765202  61.9997835  98.1750584  11.3937867
  35.4281306  59.8884583  91.3544178  35.2960968  59.0838337  91.8557930
  36.3683891  59.9080467  91.1762047  61.7795086  98.3138657   8.1442231
  61.8397713  97.9875660   7.2463757  62.3187876  99.1046906   8.1483608
  49.7728872  93.1854057   5.3446537  50.4861879  92.9852772   4.7385368
  48.9932442  92.8208160   4.9257714  67.9694366  66.9147682  27.0517182
  68.8162613  66.6152525  26.7209411  67.6234245  67.4719000  26.3545036
  32.7214122  57.8870201  14.2614675  33.5475230  57.6047277  13.8689339
  32.7440500  57.5305462  15.1495242  95.0320244  72.9357862  87.7802467
  94.9669933  73.7090731  87.2198677  94.1481590  72.8169632  88.1279564
  48.1198645  92.3805904  10.9441102  47.2707462  92.0094490  10.7043540
  48.0011225  92.6898289  11.8421662  53.5073519  57.4217272  21.5475321
  53.3931589  57.7041435  20.6401014  52.6692629  57.0228577  21.7815089
  53.3063745  81.8008232  25.4820061  52.7076960  81.6551685  26.2145400
  53.5953474  80.9235477  25.2307701  84.8892117   1.5617658  30.0967145
  84.6583366   2.3872644  29.6707058  85.0844479   1.8055788  31.0015178
  65.2430677  57.4827528   6.4377123  64.5464611  57.1038151   5.9016407
  65.4823828  56.7849541   7.0476633  57.4008417  78.4589052  21.5260267
  56.9711304  77.6592445  21.8295455  56.6985559  78.9705896  21.1245227
  84.0718651  20.8735061  36.4068246  83.5256672  21.3322330  35.7684946
  83.9427948  21.3561726  37.2232842  95.6121159  19.2507136  90.6152725
  95.1173019  20.0655150  90.7018280  96.2640095  19.2908919  91.3150215
  34.7300959  96.7684746  32.7016973  35.1461482  96.9820118  31.8665147
  33.8263893  96.5532589  32.4709845  53.9980316 101.4761257  26.4932823
  53.5282183 102.2895241  26.3092232  54.9226999 101.7101860  26.4130497
  14.0594912  62.0586491  76.0298824  14.3348944  62.2356939  75.1304150
  13.1497717  61.7718983  75.9497833  55.4991388  38.7751460   4.8108053
  56.3827562  38.6196303   4.4772390  55.5112123  39.6857524   5.1055580
  44.9531507  99.0219021  40.2545452  44.1488314  98.7010765  39.8466539
  44.6964931  99.8407459  40.6786442  51.1012745  74.5810318  15.7921708
  51.8658257  74.4246340  16.3464606  51.4394999  74.5315886  14.8980844
  87.9311943   3.3374354   9.9979764  88.7610340   3.7681118  10.2032030
  88.1439209   2.7347782   9.2853880  21.2744689  66.4863777   9.2757094
  21.5436554  66.7138195   8.3857429  20.9902406  65.5744171   9.2142826
  69.5761108  76.6465235  24.1703439  69.2798233  75.7363415  24.1677189
  70.5003023  76.5982676  23.9258456 107.7128410   6.6304028  26.5856862
 107.2474670   6.0977131  25.9407830 107.0713520   7.2839516  26.8642616
  45.8470058  94.9845505  35.8294511  45.8962011  95.3353596  34.9402118
  46.6323090  95.3189945  36.2626576  97.7211189  23.1731796  47.0652580
  96.8674946  23.0068779  47.4651289  97.9230404  24.0789986  47.2996807
  12.5450468  35.0597382  54.0720510  11.9124734  35.3978515  53.4382010
  12.9519498  35.8418369  54.4448519  64.9752474 101.5958500  17.9672146
  64.3960905 101.6074276  18.7292325  65.2549219 102.5055695  17.8651011
  56.6880178  97.2584724   5.7057565  56.9899225  97.9537868   5.1212710
  56.7079544  96.4673901   5.1672149  40.4735327  88.1443214  24.0771270
  40.9181881  88.7025928  24.7149706  39.5816278  88.4895039  24.0373373
  26.6783214  32.9893088  85.8062363  27.3095131  32.7428961  85.1301289
  26.7595601  32.3049974  86.4705753  22.8022909  84.2433167  22.5585413
  23.3838320  85.0021458  22.5113821  23.0499887  83.8018513  23.3709383
  49.5560074  76.1818981   8.1707931  49.6132803  75.6272507   8.9488143
  50.1659822  75.7855320   7.5486523  44.3400002  88.9600468   2.1336837
  44.3322182  88.5461140   1.2706494  44.2673635  88.2309914   2.7496615
  95.7006168  24.5824599   9.4230276  96.1454964  24.1808248   8.6766976
  95.1063919  25.2226353   9.0314937  14.7730088  54.0834141  19.8101795
  15.5393791  54.1912317  20.3734589  15.1305628  54.0512609  18.9228511
  57.2312641  39.1956854  87.8809357  57.4771023  38.8707042  87.0148087
  56.5546608  38.5888600  88.1812763  30.4389954  64.2745876  89.3554592
  30.5825424  63.5501242  88.7465477  30.1902437  63.8511801  90.1770878
  43.0118084   7.2694868  25.1083159  42.4600792   7.7622521  24.5008516
  42.5137568   7.2540927  25.9255910  59.8280382  52.2034788  27.5492001
  60.2218390  51.7577028  28.2991552  60.1132774  51.6938734  26.7908025
  89.3122196  29.6153760  27.8172898  89.3822289  29.5378661  26.8658066
  90.0163269  29.0618992  28.1551313  37.3615646  83.9034081  36.0911989
  36.7334437  84.3124294  35.4958844  36.9526315  83.9707184  36.9540262
  85.0723076   2.0158124  20.6154394  85.1451015   1.1032647  20.3358150
  85.0803375   1.9746600  21.5717196  18.6158252  68.0048895  20.5824828
  18.3453047  68.4696245  21.3743591  19.1030407  68.6558294  20.0773835
  32.7936697  74.4454718  27.6439667  33.6405706  74.0899706  27.9134345
  32.2041464  74.2348194  28.3680654  72.1911144  94.1949844  30.6302118
  73.0594635  94.1353035  30.2319169  72.3604870  94.2147732  31.5721011
  23.8040328  72.2940636  10.4442990  24.3557453  73.0747461  10.3955507
  24.2728424  71.6369629   9.9298340  43.2688522  91.6567421  47.7572918
  42.3303652  91.7271042  47.5825930  43.5732985  90.9741879  47.1592331
  57.0565033  80.0442886   1.7392024  57.1775436  79.8456860   0.8106896
  57.5477743  79.3616104   2.1961808  52.7593946  90.4578114   7.7743977
  52.8324223  89.7003841   8.3550817  53.1360531  91.1810875   8.2756388
  15.6875038  98.9907932  28.1034780  15.6033003  98.0484772  28.2489967
  16.5199316  99.0883064  27.6411080  54.1014290 107.5434113  47.6013231
  53.1742239 107.3238277  47.5101995  54.5452738 106.6963291  47.6423216
  19.3828535  98.0319595  61.7959642  20.1869512  97.5228310  61.6937637
  19.2557859  98.0915070  62.7428246  43.3802557  87.0008373  33.6949563
  42.4307871  87.0707130  33.5956693  43.5256290  87.0384598  34.6403050
  43.4074545  63.0544186   9.8514265  43.7779427  63.9109135  10.0644803
  43.1054068  62.7084923  10.6912661  52.0496941  90.0395870  28.3693814
  51.5184927  90.5075645  29.0136242  51.7699766  90.3940678  27.5253844
  69.6231031  92.1931171  15.1816308  70.2078009  91.8644333  15.8645093
  69.9598837  93.0655384  14.9774611 104.2459011  56.2741041  69.4523573
 104.7840405  55.7844305  70.0743341 103.5429764  56.6462517  69.9849272
  97.7366924   4.2327929  34.2899537  97.3056507   3.4474468  34.6270990
  98.5812664   4.2543286  34.7399092  74.2609215  89.9917889  16.0587323
  74.9561310  90.4125786  16.5645456  74.0471601  89.2023373  16.5560389
  30.3457141  65.9839916  87.2910690  30.1123857  66.8703890  87.5669098
  30.3976107  65.4852676  88.1064320  21.2910533  86.1210442  26.5337777
  22.1622109  86.0432243  26.9227004  21.4552593  86.3936710  25.6310344
  63.4380627 102.5162601  13.1160557  64.0098619 101.8069649  13.4096026
  62.9974794 102.1642303  12.3426270  43.2792282  94.3434525   7.5396794
  42.4373055  93.9283085   7.7269202  43.0838728  95.2801418   7.5136340
  61.0206985 105.2253342  11.8660080  60.8388758 105.7367897  12.6544094
  61.9658470 105.3082943  11.7393684  52.7216625  70.7832146  25.3897047
  52.2984552  70.1394129  25.9577274  52.0684958  71.4747906  25.2832866
  74.0722609 104.1091251  44.9265528  74.5988560 104.8760319  45.1519108
  74.7029305 103.4801483  44.5760250  61.4913368  63.1626940  11.9266129
  61.3296795  62.5846720  11.1809647  61.7556906  62.5737190  12.6333356
   3.4416392  62.3032856  76.8123245   2.6672888  62.7527523  76.4738131
   3.6916295  62.8071928  77.5868034  25.7482195  60.1957512  86.1127663
  25.9949064  60.9744644  86.6117477  24.7983479  60.1366472  86.2151432
 106.1354542  31.6800523  92.1289444 105.7128334  30.8746338  91.8307209
 105.6703663  32.3789859  91.6691399  60.4647875 103.9292336  17.3336315
  60.9192419 104.1685772  16.5259075  59.7023344 103.4301949  17.0406127
  67.9518747  56.6237450  43.7454891  67.0721054  56.8529892  44.0449619
  68.1701279  57.2995949  43.1037521 104.9073410   5.5830574   7.4358279
 105.6240654   5.8172923   6.8461955 104.3187141   6.3373959   7.4088132
  63.4657812  57.8371572  29.6678638  62.9732561  58.3980799  30.2670407
  62.8001785  57.4549150  29.0959454  50.2315664  83.2459736   5.8082598
  50.9109831  82.6792049   5.4430205  49.9259710  82.7818775   6.5876549
  45.0505352 105.4088783  26.7694998  45.9391832 105.7645893  26.7670059
  44.7145128 105.6099510  27.6429343 102.0726204  37.5628996  91.2075806
 101.7975044  37.2095108  92.0535469 102.9902077  37.8035259  91.3354969
 106.0463142  21.4693284  89.9945736 106.6342449  21.8319392  89.3319511
 106.5857029  20.8418489  90.4757786  39.5593023  86.3029289  22.0583463
  39.0597367  86.9257736  22.5862980  39.2621303  86.4566803  21.1615276
  11.1053348  14.1358685  57.2960901  11.1078131  13.9557052  56.3560009
  10.1983452  13.9906895  57.5653934  64.2285156   5.3546542  10.4858077
  63.8378763   4.6343690   9.9910128  65.1432753   5.0975263  10.6012595
  16.2581241  63.3829451   5.5017853  16.8028212  64.1547394   5.6562972
  16.5076828  62.7711201   6.1943328  29.1011071  39.2519832  20.3052163
  29.1722345  38.3063293  20.4352641  28.9105034  39.3518186  19.3725145
  18.5325718 100.1121807  30.4534364  18.5872447 100.0669479  31.4080024
  18.2936454  99.2250252  30.1849127  42.7880049  63.3399296   3.2644737
  41.9930553  62.9388666   3.6158127  42.8249311  64.2017746   3.6793074
  77.2765684   2.3083906  49.9054718  78.0693626   2.8319606  50.0220203
  76.9425583   2.5674379  49.0466547  41.5990591  91.0625744  21.2770939
  41.3746405  91.7215252  20.6200838  41.4852047  90.2260685  20.8259606
  29.8984885  33.1931400  91.6407108  29.7370267  34.0141630  91.1758614
  30.8011389  32.9653621  91.4180660  66.6512632  90.1970863   8.0943924
  67.1708918  90.7703876   7.5308800  66.1573410  89.6471310   7.4862671
  79.7074699  85.3812313  38.2678699  78.9740753  85.1326752  37.7052164
  80.2275848  84.5819187  38.3504844  86.5829849   6.4379036  13.3105433
  85.8341312   6.8881226  13.7013924  86.3133240   6.2628722  12.4089432
   8.5183966  35.1457620  80.5363846   9.4622284  35.2373290  80.6668854
   8.2708853  35.9179974  80.0278378  19.6589172  77.8330231  89.9060535
  19.4126415  78.2573080  89.0841293  19.4352174  76.9114208  89.7762775
  25.2061176  29.6437716  83.4671783  26.0349798  29.1736627  83.3765316
  24.6212149  29.0178490  83.8941956  40.7555389  84.2471027   2.2017124
  40.6960869  84.8212910   2.9652607  40.8518982  83.3686638   2.5695410
  46.5199900  26.1764479  88.8763332  46.1000013  26.6578293  88.1635094
  47.2990465  25.7890368  88.4773159  28.3553076  86.1891174  46.6043425
  28.7999868  85.4097271  46.2711096  29.0647125  86.7801476  46.8566513
  95.6899834  22.1567559  32.5738025  96.1375141  21.3517165  32.3132968
  96.3670635  22.8319740  32.5304008  24.8966002  38.7985730  81.4928246
  24.0776825  39.0992880  81.0988998  24.9592996  37.8771925  81.2411022
  70.5286503  20.5397177  23.3631396  70.8948803  21.3949656  23.1380653
  69.6159220  20.7214260  23.5870600  34.2967772 101.5775299   5.4480445
  34.3936563 102.4831390   5.1535523  33.3587742 101.4011288   5.3754985
  27.1165347  47.0277309  33.6906409  27.6678467  47.7331734  33.3520532
  27.3490214  46.2661171  33.1594872  48.8644171  96.2135506  58.0558300
  48.2027340  95.5617237  57.8244638  48.3859062  97.0421886  58.0807161
  24.7417569   4.1172984  23.3621812  23.9430261   4.2305028  22.8469682
  24.9199462   3.1775880  23.3244395 100.4638481   2.9788268   5.2883369
 100.1743317   2.1260124   5.6125593 101.2838078   3.1459662   5.7530510
  92.3424435  97.4983692  26.3478374  91.9762135  98.3468914  26.5970826
  92.8275299  97.2104073  27.1211386  56.6020632  19.5820105  17.4590313
  57.4935150  19.5777690  17.8076410  56.2650728  18.7072301  17.6524901
  57.0278645  32.2001457  45.1145983  57.8731537  31.7515564  45.1365328
  57.1751356  32.9612732  44.5531416  53.8877296  96.1932468  22.6691866
  54.2700529  96.8146038  22.0495296  54.6416426  95.7814026  23.0913591
  65.8539772 102.1381760  33.5951948  66.3614511 102.7007961  34.1801333
  66.1458158 101.2507057  33.8036776  92.3532867  12.4401081  38.4557176
  92.6222420  12.0569873  37.6207852  91.3991451  12.4917817  38.3992290
 102.4056435  47.3108768  14.8050356 102.3084259  46.4426184  14.4140017
 101.5418625  47.7129793  14.7132277  83.5002422 101.3346004  43.1898165
  83.6561680 101.9086838  42.4399233  82.5702572 101.4457989  43.3873034
  46.1237431  83.0650616  30.8134627  46.8365383  83.6007595  30.4653573
  45.6896877  83.6300278  31.4527082  84.4981480 103.8034821  45.2424860
  84.4754791 103.8822556  46.1961699  84.7273445 102.8878880  45.0831699
  81.8290901  92.1680546  18.4918463  82.3549652  91.7907715  19.1970706
  82.3907089  92.1132660  17.7186573  92.5939751   5.7730025  33.2268715
  93.3627033   5.5509949  33.7522316  92.9520226   6.1861104  32.4411416
  99.8315811  22.9027343  28.5485005  98.9988804  23.0899358  28.9818501
  99.5847893  22.4602795  27.7363682  25.2771878 102.4462891  21.8914461
  25.3835917 102.9103565  22.7218390  25.0221634 101.5589142  22.1439505
  53.2267857 106.5614796  23.8220501  53.7666607 107.0514107  24.4423175
  53.7911844 106.4377499  23.0589128  57.5412226  91.8010044  17.7987945
  58.4715128  91.5802765  17.8442967  57.1649218  91.1350632  17.2233415
 110.4239368  28.7118196  38.3460522 109.5222569  29.0253544  38.2759690
 110.9277725  29.4858098  38.5976815  16.2058687  30.0473070  15.0477064
  15.3610694  29.6445131  14.8469496  16.2650001  30.0165439  16.0025823
 109.0948105   3.4016651  21.4422989 109.0838528   3.8731351  22.2752619
 110.0174904   3.3860281  21.1880493  31.1593533  43.4006691  16.2495553
  31.5345550  43.3801889  17.1299160  30.2129173  43.3892107  16.3922334
  69.7565031  85.7111073  60.1796293  70.3875589  85.8742619  59.4786453
  69.7029638  86.5419865  60.6518745  93.6642170   9.5421457  10.3932679
  94.3117237  10.0096941   9.8656726  93.7014866   9.9671149  11.2501490
 107.9100323   1.0793129  34.3145990 108.3056641   0.3989284  33.7698269
 108.6478901   1.4715491  34.7814345  40.9217882  52.2535086  78.0802774
  41.7257977  52.6178789  78.4504652  40.3493071  52.1200466  78.8357162
  85.5047417  65.2790785   8.7078905  85.8479404  64.6056175   9.2951638
  84.9618530  65.8324718   9.2693776  75.1611853 102.0134449  28.5254216
  74.9258995 101.6932964  27.6545715  75.1796579 102.9660416  28.4334874
  96.2104797   8.3480960  54.0323019  95.5686569   7.7946526  53.5873365
  96.1739922   8.0690783  54.9472094  70.1397562  94.8450184  15.9209943
  69.9134541  95.7571220  16.1028779  70.8855677  94.6646023  16.4932287
  61.5845251  81.7871666  33.2365608  60.8988190  81.1202621  33.2007122
  62.2949457  81.4290905  32.7042866  10.6954443  27.0153046  89.4138718
   9.7606117  26.8422723  89.3026066  11.0716355  26.8655515  88.5465240
  58.3964586  65.5705452  18.7284327  58.2684565  64.6360636  18.5653687
  59.2979527  65.6374788  19.0431678  97.9101944   0.5070560  42.7926636
  98.3190441   1.0881760  43.4340429  97.0181274   0.8417085  42.7006578
 103.4666157  10.0283921   4.1323015 102.6182652   9.6532768   4.3685782
 104.0671635   9.7041070   4.8034269  44.4880629 101.2484169  36.0285044
  44.4351292 102.0425129  36.5603232  45.4266405 101.0933876  35.9223270
 105.1568985  36.1128354  30.3223562 105.4278183  35.2044821  30.1891828
 104.6751213  36.3382101  29.5265412   3.4257001  99.2927933  81.3460445
   3.7038791  99.5568180  80.4690361   4.2410725  99.2053127  81.8397522
   2.8604200   7.8462982  12.2324526   3.7081033   7.5875801  12.5940180
   3.0678615   8.5450739  11.6120386 105.2229786  18.0227745  42.3954201
 104.9355698  18.8954031  42.1268177 104.4400215  17.6166117  42.7672148
  66.9761944  97.8919983  42.2156382  67.8610325  97.8794765  42.5805187
  67.0841455  98.2588196  41.3381290   3.3405960   8.2470477  32.8459477
   4.2189109   8.2936555  32.4682951   2.8912711   9.0196913  32.5033689
  10.4656136  63.2335663  86.4422989   9.5271462  63.4210587  86.4233780
  10.5944455  62.7372313  87.2505569  57.3222589  95.8862400   8.0419403
  57.4392223  96.5648651   7.3770940  57.9138851  95.1833248   7.7733749
  72.9110575  41.6293812  34.6494532  72.2585773  41.5452862  35.3447437
  73.5860300  40.9895039  34.8757386  20.5266619  13.2415688  23.2474780
  21.4009023  12.9253244  23.0196047  19.9489284  12.5003219  23.0657959
 110.9300613  11.9714522  16.3951325 110.5336189  12.1828687  17.2403383
 111.3275051  11.1105061  16.5256596  79.0613222   4.0050727  22.8153992
  79.6268845   4.0432459  23.5867071  78.1731844   4.0719119  23.1660795
  62.7697992  79.8135662   4.2054245  63.6945343  79.6814060   4.4142842
  62.4910641  78.9842701   3.8170853  82.9368973  83.5153580  26.4300656
  83.5929298  84.2105484  26.3795233  82.7586651  83.4218025  27.3658586
 110.8547592  60.4940081  92.5214767 110.7926178  60.2092075  91.6097450
 110.6576729  61.4302921  92.4938965  69.2425489  93.1666183  32.8643966
  68.8868523  92.4958706  32.2814631  70.0369930  92.7733040  33.2254934
  84.0366364  13.4222102  85.6042576  84.1477776  13.1229293  84.7018719
  83.3254147  12.8826773  85.9496593  89.4294834  78.5475492  13.7137318
  90.0535774  78.6034298  14.4373405  88.6534309  79.0097284  14.0305364
   3.5055012  19.6527481  27.6310396   3.4874600  18.7558901  27.2970462
   3.4544107  20.2009869  26.8480611  37.2626519  35.5173302  28.9644623
  37.3713803  35.8237648  28.0641794  36.5005302  35.9962583  29.2900872
  71.3936424  23.6765718  51.5757179  71.1547804  23.5360742  52.4919271
  70.5759668  23.9382458  51.1524391  72.0593262  18.5440814  33.6261010
  71.4108753  18.7177122  32.9437590  72.8035450  18.1650960  33.1584001
  79.5205975  94.4944382   5.3679276  78.6905670  94.0178967   5.3542584
  80.0544453  94.0272617   6.0105717  71.5040922  90.6165600  16.6705906
  71.1687899  89.7435570  16.8747461  72.3778963  90.4598427  16.3126171
  63.5673904  94.7841549  43.5071659  63.1413841  94.8929024  44.3574190
  64.2918158  94.1821384  43.6774826  23.4158230  57.5996065  69.5953083
  24.0737987  57.9061270  68.9713335  23.4765959  56.6450691  69.5579052
  38.1805611  75.9973335  36.8793201  37.7401972  75.3377151  37.4152446
  38.9553237  76.2397289  37.3864865  56.7822981  98.9029789  18.8249373
  56.0380650  99.1537189  19.3721879  56.5877485  99.2819977  17.9677737
 108.1823063  13.9974415  39.1376686 109.1143322  13.9971566  39.3557644
 108.0945206  13.3263898  38.4607506 101.6597271  12.6354659  12.7910030
 101.8542576  13.3417737  13.4070516 102.3531628  11.9921017  12.9375088
 107.9228401  27.2637820  52.6435089 107.5885105  27.8596878  53.3138466
 107.4577332  26.4419603  52.8000975  44.3181753  78.0927849  23.2660389
  44.2628479  78.6947584  22.5238776  45.2507544  78.0605984  23.4793234
   6.6904235  44.4625902  18.4176838   6.1421025  43.8871384  17.8843665
   7.2256970  43.8660097  18.9409471  72.0002556 102.8007221  16.9365621
  71.0441446 102.7766132  16.8977809  72.2659922 103.1438446  16.0834038
  26.4748430  53.0602884  81.8025208  27.0762134  53.8019323  81.8700218
  26.7678571  52.5842857  81.0254860  69.9675035  50.9100580  23.5367703
  70.4312325  51.5428734  24.0851593  69.7579241  51.3937330  22.7377939
  10.8604324   9.6247762  53.6028862  10.8470440   9.6258396  54.5599890
  10.9664762  10.5455530  53.3638096  16.9252598  78.9980078  74.5153189
  16.6924202  78.4294224  73.7813377  16.9821060  79.8731327  74.1317177
  92.2825336  15.6157863  34.6741796  92.3111343  15.4025531  35.6068873
  91.8325424  14.8726666  34.2722893  80.0764465  48.2811260  13.3588767
  80.2155590  48.8824415  14.0905201  80.8484554  47.7152586  13.3638084
 102.8755856   6.0215998  51.7216969 102.3653126   6.8309575  51.7499828
 103.0629730   5.8244097  52.6394272  34.3671489  67.3087120  88.9519978
  34.4597578  67.1208382  88.0179882  35.1690030  67.7778435  89.1825962
 110.3833103  10.8841252   1.8491326 110.9119415  11.6696334   1.9897227
 109.4812679  11.1755490   1.9818954   5.9311998  25.1667547  26.7883468
   6.5376079  24.8814654  26.1048913   5.7131499  24.3656588  27.2647190
  53.9390993  93.5815430  58.0988693  54.8196220  93.4106159  57.7646494
  53.4767723  93.9814472  57.3622799  34.8896456  26.9899774  32.4285293
  34.9867773  26.3492584  31.7240620  33.9491153  27.1637964  32.4661994
  33.4933281  29.5477509  62.9133892  32.8109431  29.0870547  63.4015989
  34.0916109  29.8723817  63.5863733  54.0041256  49.7677994   0.5671953
  53.7829924  49.7525740   1.4983779  54.5738649  49.0085745   0.4438799
  51.9700336  85.1500893  68.3821678  52.1598387  85.0730801  69.3171978
  52.7774525  84.8714256  67.9501295  84.0515518   6.3254356  60.0203037
  84.9105644   6.6206479  59.7183228  83.9492798   5.4543304  59.6369696
  31.7776275  16.4365113  40.6334352  32.4581552  16.3797629  39.9626923
  31.6726613  17.3750794  40.7893324  41.0829496  50.0768423  16.4846492
  40.7542849  50.1334572  15.5874276  40.8623314  49.1885853  16.7649376
  96.1253262 104.2814064  88.5178947  96.5045929 103.8963699  87.7278709
  96.1163330 105.2228165  88.3449650 108.3441639  23.2661986  19.3544245
 108.2748890  22.8817439  20.2282810 108.2543564  24.2080951  19.4993377
  14.5946074  50.0715876  18.1656849  15.2867675  50.6989956  18.3742607
  13.8552797  50.6134558  17.8899968  37.4306107  59.3512774  45.0552130
  36.5173602  59.4645882  44.7918320  37.7397966  60.2390432  45.2355146
  52.9674101  89.6918964  83.6174393  52.8688240  90.2588272  84.3823528
  52.4008703  90.0848293  82.9534626  48.8554430  63.7577820   9.7928631
  48.2925749  63.7382507   9.0188950  49.1976118  64.6513891   9.8176891
  92.3788357  84.2448330  81.3493443  93.1629372  84.0122128  80.8520412
  92.1527004  83.4467983  81.8270874  21.4187288  30.4272413  26.2175703
  21.7192864  31.2933612  26.4927649  21.2401295  30.5218005  25.2819443
  93.3688354  13.2997000  92.3157787  94.3094444  13.4331059  92.4326992
  92.9628563  14.0168691  92.8026867  26.1972070  42.8363228  38.6227655
  26.5061331  42.3764277  39.4033360  25.2475691  42.8839970  38.7329817
  39.8873615  47.7140093  31.1083078  40.7948446  47.9158306  31.3362932
  39.4557333  47.5679445  31.9500875  18.6202073  34.1437721  34.2426324
  19.0414190  33.5745907  33.5985470  17.9338717  34.5949173  33.7510586
   3.1690058  23.2122731  34.0382075   2.5888166  23.1108713  33.2836676
   3.0338985  24.1155934  34.3245411  17.4134302  38.3924222  36.9709992
  18.1466806  38.1507063  36.4051819  17.8065193  38.9371777  37.6528740
  38.3465147  52.2966337  25.7270336  39.2401958  52.3507595  26.0656095
  37.9760575  51.5227699  26.1514544  16.7347217  43.2314348  19.7092080
  15.8569467  43.0881786  19.3553436  17.3232424  43.0031919  18.9896393
   5.0213373   7.7410734  89.3023491   5.1303023   6.7928952  89.2294312
   5.0232273   8.0526829  88.3972931  45.6523180  52.2633791  15.5590463
  45.8517361  52.5973797  16.4336360  46.1816788  52.8016901  14.9706328
  30.4049468  52.4761438  18.3051085  30.6987619  52.1485758  19.1551697
  30.6570411  53.3995485  18.3041060  27.5209808  78.6133242  28.8913751
  26.7052531  78.2013893  28.6065412  28.1694579  78.3320189  28.2459497
  48.8100290  44.1086864  26.6032505  47.8614092  44.2266226  26.6527057
  49.0756941  44.6216583  25.8400202  37.9564691  72.0771551  13.0129480
  37.6055121  72.3050022  12.1520495  38.8481569  72.4251509  13.0078435
  46.2497044  47.6530361  11.5254736  45.8008242  47.7540970  12.3648334
  46.1983013  48.5188675  11.1205983  65.4190350  89.7608852  21.5220571
  66.0911655  90.3973293  21.7657924  65.3739691  89.1626263  22.2679019
  47.2516108  50.0179005  32.0287895  46.7141724  49.3657303  32.4783039
  47.6470184  50.5298758  32.7343130  63.4423208  65.7134247  81.5242195
  63.7302685  65.5077314  80.6348324  62.9987097  66.5577364  81.4431000
  32.7161384  40.7566738  15.6606424  32.5281453  39.9555111  15.1717353
  31.9535017  41.3147259  15.5083406 101.3506889  26.4026189   3.0942783
 100.6198692  27.0094371   3.2121998 101.0017300  25.5524969   3.3621565
  77.7413702  98.7399769  86.2161350  77.2467327  98.1816578  85.6162643
  77.2843647  98.6563206  87.0530224  23.3217883  56.0615683   9.6986467
  22.5288033  56.5924263   9.7734618  23.9347029  56.4579916  10.3178513
  72.0028257   0.3173322  90.6516171  72.2995424  -0.2861496  89.9704456
  71.5329075   1.0025854  90.1764011  22.0566177  37.4249721  20.0155425
  22.1593952  36.7508769  20.6873059  22.8647399  37.9357553  20.0631762
  37.8589439  46.9094038  24.2895198  38.5078263  47.1832561  23.6413002
  37.0270276  46.9232559  23.8162827  55.5785751  90.7703018  65.9385729
  55.5432940  90.3428936  65.0828218  55.5225563  91.7053795  65.7417583
  30.1873302  70.5223513   7.2966468  31.1376953  70.4161310   7.2547299
  29.9055243  69.8961592   7.9635084  35.5060601  39.2480469  32.6452279
  36.2546492  38.6847973  32.4487591  35.5072403  39.9008393  31.9451594
  12.7303243  33.2266760  21.3216615  13.4768176  32.9686189  21.8623900
  12.0334256  32.6192665  21.5698910  45.7267237  41.3274717  32.0285940
  44.8147392  41.6147280  31.9838786  46.2153006  42.1168327  32.2619033
   4.8304397  12.9614568  41.8451452   5.0628442  12.5302672  42.6675177
   4.1658208  13.6047530  42.0914841  17.6643062  58.7019634  36.8232107
  17.7138436  59.5500088  37.2643352  18.2340491  58.7954664  36.0597444
  91.3611507   0.5684369  83.4257889  92.1188927   0.1049511  83.0690861
  91.5222263   0.6006617  84.3687916  22.6545501  42.2279024  10.8119369
  22.3476648  42.9239607  11.3929343  22.6325655  42.6181602   9.9381822
   7.9407567  37.3298359  22.9262137   8.5987878  37.8884053  23.3400083
   8.1575382  37.3544502  21.9942093  21.4630651  62.7697897  17.1811748
  22.0361447  62.5864887  17.9256296  22.0145106  63.2564211  16.5685332
  39.1508579  18.9895439  44.5738745  39.0961671  18.0747068  44.2976284
  38.3873844  19.4064093  44.1744232  94.5707893  86.4776421  92.2364712
  95.4219723  86.7852116  91.9248104  94.2474937  85.9144115  91.5332699
  37.2819090  39.4476247  16.3455951  36.5160012  39.4640684  16.9194818
  37.0780635  38.7774515  15.6932569  23.5945225  13.1080973  11.0497940
  22.9554439  12.3968911  11.0051489  24.3393779  12.7932870  10.5376232
  49.0671062  85.4670429  80.9411526  49.8156309  85.2010441  81.4751816
  49.0216589  84.8088074  80.2476883  66.3655949  13.5754740  26.6457272
  65.4842329  13.5124254  26.2776875  66.4662409  14.5007849  26.8691134
  36.1111212   3.7687314   8.0541635  35.2549458   3.8032061   7.6275438
  36.3291264   4.6844134   8.2280397  45.0439453  68.0270243   3.6977643
  45.0779963  67.5261545   2.8827769  45.5513811  68.8176584   3.5143685
  80.1593685  95.4378128  65.3652906  80.5525112  94.8820686  64.6923733
  80.3337574  94.9788094  66.1869574  60.6126165  16.1657476  45.3439474
  61.3853931  16.2632871  44.7875929  60.2905416  17.0589364  45.4652548
  19.4845819  21.0352159  13.7993765  19.0164912  21.7013907  13.2960534
  19.6090770  20.3131747  13.1834304  49.3570566  24.2833376   3.1835002
  49.3162966  23.6345291   3.8860795  49.0145969  25.0854087   3.5780063
  64.0507269  42.3124361  -0.0440207  64.8809958  41.8982363  -0.2792333
  64.1696215  42.5881290   0.8648738  42.6093388  44.9002647  11.1077702
  42.4342346  45.8370781  11.1969709  43.4271431  44.8555708  10.6123626
  67.7113628  83.7629700  72.3032045  67.1619320  84.3157864  72.8588629
  68.4990406  84.2848778  72.1502256  86.0069370  77.9334879  88.7778378
  86.9193172  78.1008339  89.0140533  85.6496239  77.4553394  89.5261192
 104.8757076  83.7543964  86.3792801 104.9577713  83.3621788  87.2485638
 104.2470837  84.4667053  86.4962864  37.3168206  50.5889130   1.0228810
  38.1726193  50.2758455   1.3158429  37.4357390  51.5306187   0.8992656
  73.0957842  43.7577009   5.9047222  73.4609175  44.5668840   5.5467689
  73.5795784  43.0603170   5.4621899 108.0396748  53.8477802  23.8019776
 107.8899097  53.6453581  24.7254658 108.6969280  53.2112551  23.5207844
  14.7122967  24.0704989  28.4672427  14.3653607  24.5506096  27.7153373
  15.2358615  23.3678937  28.0819392   4.9141741  55.7761621   4.3323845
   4.1198111  55.6948805   3.8045472   5.0198132  56.7185593   4.4626248
  64.8570013  78.7176800  64.5620012  65.7358074  78.7984180  64.9326944
  64.3380737  79.3707514  65.0315142   3.3194655  32.6227474   8.1785542
   3.7125149  32.3678994   9.0132976   3.9950433  32.4324417   7.5277013
  60.1175070  97.5955772  75.0673962  59.2029381  97.3607540  74.9103880
  60.0939894  98.1349945  75.8577824  34.2769217  34.2127132  18.0393720
  33.5730648  33.6942697  17.6494575  34.0295172  35.1210308  17.8662264
  39.3072891  45.8743477  21.8096066  38.5269856  45.5974102  21.3293314
  39.3677378  45.2613068  22.5422430  56.6995573  99.3116665  64.4706011
  56.8649530  99.1828823  65.4045677  57.2786713  98.6854172  64.0362263
  42.6265860  56.3699436   2.2373354  42.8313637  56.5554142   3.1537950
  42.3248148  57.2072792   1.8851486  21.0926294   4.4372806  75.6768465
  20.1512885   4.2692506  75.6335354  21.1636305   5.3904021  75.7292938
  12.0545888  53.9979172  84.3441105  11.8538368  53.2235003  84.8696613
  12.6158464  54.5307493  84.9074173  53.1393337  15.7962775  20.7193661
  52.4461126  15.7459807  20.0612283  53.1431341  14.9315429  21.1297965
  14.1126120  12.4203515  53.0334568  13.9422238  11.4826179  53.1220865
  13.7368488  12.6528633  52.1843576  14.2448711  26.4499259  12.4478805
  14.2183912  25.5010581  12.5711060  13.9126694  26.5855694  11.5604830
  75.2742290  53.6150408  15.3061378  75.2509499  53.0397511  16.0708153
  74.3665648  53.8959169  15.1900065  27.2519541   1.4309989  91.4689636
  26.2949324   1.4424054  91.4544296  27.5084496   2.1963026  90.9544277
  34.3781304  46.7920542   4.2115870  33.5622478  47.2687578   4.3643111
  34.1463280  45.8725691   4.3421239  15.5877030  68.2324123  18.6598837
  16.2827051  68.4999609  19.2612338  15.6648695  68.8359356  17.9209411
  76.6004610  90.8206558  81.1733818  76.5283728  91.5112782  81.8322277
  76.5140200  91.2777328  80.3368282  12.8937721  19.9099290  90.5971909
  13.2675695  20.3431225  89.8298264  12.3923326  19.1777778  90.2383804
  59.5149326  60.8480740  13.3608735  59.2296600  59.9404955  13.4664655
  60.4698992  60.7959270  13.3214450   1.9619071   8.2479769  91.2664032
   2.1484323   9.1696995  91.0878849   1.7302679   7.8808928  90.4132748
  61.0712671  95.3697681  86.2156391  61.9498920  95.2363682  85.8600330
  60.8168554  94.5111942  86.5538120  54.5501804   6.8644536  23.3257556
  54.0188885   6.2028426  23.7687349  53.9370680   7.5734860  23.1318474
  62.6478386  47.5274467   7.5178605  61.7901897  47.3450518   7.1339375
  62.9308414  48.3393002   7.0971102  35.1513100  63.5656595   8.2324362
  35.4744864  64.3558645   7.7995789  34.2062974  63.7006330   8.3029258
  64.5053005  74.8135567   3.9906967  63.7251949  74.2614794   4.0443647
  65.2367830  74.2057276   4.0989089  60.1079226  22.0243692   5.1486379
  59.6277380  21.9156408   4.3277630  59.4822598  21.7713380   5.8274287
  10.4115784  34.7344208   9.9335462   9.8523438  34.8677468   9.1682273
  11.2918890  34.9533105   9.6279788   5.9017783  24.7927094  91.5986156
   5.2232760  24.3396330  91.0980320   6.0634780  25.5985808  91.1080456
  17.1783078  27.4085212  87.4136639  17.6105368  27.4074316  86.5596104
  16.3761044  27.9121113  87.2754669  37.0114279  85.1487732   4.1623953
  37.5390005  85.9398174   4.0521923  36.4913154  85.0941467   3.3606911
  43.0098248  47.0709324   3.7728000  42.9925728  46.1654377   4.0826553
  42.4011040  47.0829725   3.0341890 113.1383610 102.8836536  90.8500671
 112.2047138 102.9601002  91.0467815 113.5168171 103.7059307  91.1612988
  39.5762491  50.5039930  47.0719051  40.3412771  50.9250736  46.6799164
  39.7393584  49.5665264  46.9680595  29.6795678  63.1344557   7.2335780
  28.8482141  62.6756525   7.1128076  29.5101810  63.7543392   7.9430056
  79.8471975  38.7179708   0.3073797  80.2837467  38.7051105  -0.5443775
  80.5593872  38.8107538   0.9401587  84.4919395  55.3392267   3.3870003
  83.8479042  54.7166872   3.0495369  84.7534561  55.8516502   2.6219729
  78.9984655  91.4652729  90.3874302  79.1764927  92.3654175  90.1148987
  78.8536930  90.9912872  89.5685196  64.6286535 101.6015720  88.5285378
  64.5042706 102.4966049  88.8442421  64.7124767 101.6918945  87.5792980
  50.1661587  54.3472099  15.9614182  50.7135153  53.5641623  16.0202849
  50.7154226  54.9902201  15.5130005  63.8662052  75.8502579  83.3902740
  63.5970402  76.3450336  84.1642094  64.7890234  76.0749674  83.2713413
  26.2432194  12.0480669  79.7038078  26.4368200  11.3187706  79.1148424
  26.2977219  11.6685891  80.5808830  25.5492115  37.6988268  22.1971917
  26.1677933  37.0761514  21.8152714  25.1256347  38.1087828  21.4430356
   9.1263247  62.8650999  26.4852619   9.5211679  62.2352123  27.0882344
   9.0964580  63.6839724  26.9800210  73.2797241 104.5820618  88.1926632
  73.6781216 104.9815655  87.4194241  73.0600834 105.3222656  88.7584305
  59.5897627  49.9836493  14.4680119  60.3653812  49.8408890  15.0104749
  59.9028587  50.5183744  13.7384415   7.9416174  29.9667239  72.0114660
   7.6197189  29.2675710  71.4424324   8.8497341  29.7266388  72.1956301
  40.6990194  16.4522934  90.7852364  40.5985975  15.7563126  91.4346600
  39.8156238  16.5902352  90.4434490  41.3011074  38.9362192   6.1265510
  41.5012264  38.0599618   5.7973737  41.1331224  39.4550180   5.3398740
  12.8167033  92.0274925   8.5224456  13.3621609  92.1570396   7.7466059
  11.9736099  92.4167061   8.2901913  18.3580995  76.5509224   4.6737903
  18.8626766  75.7375336   4.6794423  17.4484265  76.2678337   4.5811278
  22.4986196  16.6981411  16.1242068  21.7088103  16.3159049  15.7416785
  22.3623800  17.6434362  16.0602617  45.8803749  78.1257248  68.2050180
  46.3416815  77.3360062  68.4874725  46.3702583  78.4287643  67.4405479
  36.4553785  76.3524628  18.8800120  36.4311361  76.3545942  19.8369026
  36.0726857  75.5106974  18.6326051  74.8846197  54.1164923  35.9802532
  74.2990494  53.7657404  36.6513085  74.7457361  55.0630236  36.0121536
  10.0912547  55.2687788  31.0227633  10.2279007  56.0060692  31.6177082
  10.8733523  55.2581120  30.4710007  56.7296600  19.8491001  42.6274347
  57.2188377  19.7805452  41.8075323  56.3706112  20.7363629  42.6186466
  57.6587391  86.4812660  11.1234415  57.8069544  85.9594917  11.9121206
  57.0006990  87.1261120  11.3830328  33.5378575  76.6178942   0.6642912
  32.9486775  76.5008640  -0.0809624  34.4128156  76.6399145   0.2767402
  43.7491941  40.4770088  35.9445524  43.9376831  41.3502264  36.2883449
  44.3029594  39.8915577  36.4611006  46.2346601  25.5134916   8.4245896
  46.5521812  26.3280296   8.0347955  46.7061615  25.4455400   9.2548305
  17.5420058  75.8752251  26.6075444  17.3944449  75.1052856  27.1567702
  18.4907067  76.0016489  26.6222334 102.7908230  89.6338463  57.1880293
 103.5316753  90.2207088  57.3395729 102.1607685  90.1644707  56.7004824
  87.6522541  84.7586250  56.7270660  88.0708122  85.3786659  56.1299133
  87.5395966  85.2490997  57.5412989  62.3232317  70.1665449  21.8676114
  62.4264574  70.2033520  22.8185153  61.6644526  70.8329296  21.6722322
  98.3443642  58.5401773  50.0112438  97.6414299  57.9051971  50.1487637
  98.5964489  58.4237862  49.0951967 106.8718243  22.1942759  76.0744286
 106.8793488  22.6400042  75.2273750 106.6390514  22.8778601  76.7027283
 104.7258091  33.1599331  68.8363886 103.7974453  33.0271935  68.6446714
 105.1818943  32.7865171  68.0822134  12.8996098  63.8686371   9.3131876
  12.6571918  62.9865456   9.5949244  12.3092556  64.0578413   8.5838622
  58.6891794  46.5183640  25.4352713  58.2319641  45.9806633  26.0818481
  58.3733702  46.1975145  24.5905519  22.5230193  72.8132534   5.5720270
  23.3322167  72.6784039   6.0652292  22.0605183  73.4991550   6.0535485
  26.4317369  56.3634109   5.6924635  26.2289453  55.9447718   4.8558924
  25.6323814  56.2646866   6.2096840  32.4505019  61.5541220   0.6677859
  31.8732595  61.5162992   1.4304084  33.1725836  60.9643078   0.8844648
  82.1942520  48.4424400   2.6779291  81.4309883  48.4536695   2.1004041
  82.9443645  48.4341526   2.0833790  28.6757684   9.8379403  91.2577724
  27.8666520   9.4831771  91.6261578  29.1340113  10.2175772  92.0075226
  56.1454058  57.4235630   4.6952391  56.4396954  56.8365049   3.9988291
  56.9084740  57.5208616   5.2648783  24.6777391  26.9740796  77.5550365
  25.6227493  26.9696498  77.4028301  24.2968106  27.1337771  76.6915417
   1.2183768  63.6493254  68.8946056   0.5466243  63.2517099  69.4485760
   0.8154961  63.6988068  68.0277300  36.2361670  62.4604988  38.4763360
  36.8251085  62.4098682  39.2292094  36.3967729  63.3277845  38.1045103
  93.0174351 100.4588604  68.4401608  93.5861111  99.8828506  68.9510918
  93.3019257 100.3345871  67.5347042  75.8450222 107.3298168  71.2818003
  75.9542084 106.4064121  71.5090513  75.0023127 107.5728130  71.6652298
  75.9552574 103.8828659  85.8124542  76.8799543 103.6426640  85.7535934
  75.7309151 103.7480354  86.7331791  81.7261124  30.8352351  46.0044765
  82.2067070  31.6193366  45.7390547  81.0035133  30.7742524  45.3796959
  41.8389034  12.8909290  64.9977398  41.9038057  12.7205658  65.9374189
  42.1847534  12.0988917  64.5862770   5.5836308  14.5461452  85.6393337
   5.9012556  13.9690793  84.9448299   5.7843053  15.4287302  85.3278732
  33.4175730  68.1960058  28.6821532  34.2678595  68.6331940  28.6361670
  33.6137772  67.2730732  28.5211110  55.5725098  74.7267628  66.0886002
  55.2197313  73.8813877  65.8108997  55.4122639  74.7549677  67.0318699
  29.6944642  47.7045488  53.7469816  29.6347475  48.5691166  54.1534090
  30.6136322  47.4563837  53.8458538  41.1649895  78.6553478   9.4393408
  40.2226210  78.7488127   9.2999214  41.2620783  77.7972460   9.8522216
  33.2721496  98.8812256  79.6786451  32.5219464  99.3716526  79.3426275
  33.8704300  98.8187885  78.9340687  14.8945069  65.5422783  13.3851826
  15.2540922  65.0382042  14.1151404  14.9180067  64.9386358  12.6426864
  87.4184704  52.5736141  59.2711401  86.8025684  53.2851410  59.0961218
  86.9129276  51.7757034  59.1162252  77.6961136  72.1486473  19.0974140
  77.5825882  72.1969557  18.1481981  77.4468946  71.2524462  19.3231332
  25.6551385  51.7928743  22.3061538  25.7158279  50.8861542  22.0054793
  25.9200048  51.7586374  23.2253432  74.2368126  44.7330046  26.6747522
  74.3257427  44.1859627  27.4551797  75.1255131  44.7977448  26.3251042
  37.0166826  54.8375320   9.1474462  36.4562631  54.8262835   9.9233550
  37.0552444  55.7595396   8.8931912  73.5732555  46.2408876  21.3268304
  73.5121346  45.6848955  22.1035981  74.5045900  46.2420988  21.1058331
  81.5519714  21.9752049  31.6540813  82.2484207  21.3991570  31.9692993
  81.0729694  21.4453769  31.0168457  71.9076824  50.1628971  30.1696682
  72.3822546  49.3326759  30.2114701  72.2918034  50.6209707  29.4221044
  15.4032207  28.1216192  66.6960812  14.9070239  28.1878662  67.5119400
  14.7365046  28.0069637  66.0188961   9.2274672  29.9271417  92.3184395
   9.0133297  30.8214879  92.5840092  10.0780654  30.0028610  91.8860245
  98.2773209   0.5263971  80.3462601  98.7120819  -0.2698113  80.0408554
  97.6459599   0.7338299  79.6573591  44.5293379  63.3340073  26.3471270
  44.4019985  64.2756367  26.4626956  44.6696281  63.0007315  27.2333980
  21.7908359  46.4824486  14.3382919  21.4729214  45.9316587  15.0536859
  21.9189811  47.3430157  14.7373354  31.0476065  66.2048626  44.0583658
  31.4855576  66.1792803  44.9091196  31.4246631  66.9663429  43.6176777
  15.1106465  59.2956495  15.1140809  15.7437694  58.5780048  15.0949144
  14.2755818  58.8730431  15.3148305  22.3396158  55.2489901  32.9925323
  22.1932602  54.6816254  33.7494421  21.5868187  55.0882530  32.4235940
  38.8412809  60.4933882   0.4318900  39.1274500  61.0875130  -0.2619111
  38.3577824  59.8057508  -0.0259411  66.5426111  55.8735085  24.7348642
  66.8936825  56.4557028  24.0610433  65.6815243  56.2373161  24.9407983
  11.5409291  23.8027573  74.7958899  12.3524702  24.2327309  74.5261574
  11.8106747  22.9205108  75.0510597  27.0936465  64.1503859  53.5089016
  27.9893255  64.4447660  53.3435822  26.8843532  64.4957542  54.3767452
  63.2987785  51.1441374  28.5222411  63.3573818  51.9919062  28.0816913
  64.1800308  50.7769060  28.4531808   4.4404405  39.5725179  61.3673925
   4.4360614  38.7879944  61.9157839   4.8648790  39.2949200  60.5555916
  80.4761219  20.6272340  91.3322830  80.5080128  21.3144875  91.9977856
  81.3396645  20.2161050  91.3709641 104.1881752 104.6756458  73.7840700
 104.4173717 104.1140079  73.0436230 104.1071606 105.5507660  73.4048223
  91.1749935  26.6616273  83.0885983  91.8341446  26.7405915  82.3990250
  90.5064678  27.3059225  82.8558159  65.9558058 101.0471249  83.6441422
  65.4114819 101.2172318  84.4129086  65.8169365 101.8073845  83.0793667
  84.5844173 105.7117558  91.5306568  84.1461468 106.4032936  91.0347366
  84.1974068 104.8999405  91.2029171  77.7133417  99.2271996  82.9898739
  77.7042246  99.1960812  82.0332241  77.8616905 100.1496220  83.1981087
  44.7320604  33.1815863  88.7874889  45.2461576  33.9553976  89.0180302
  44.9068975  33.0466342  87.8561211 105.8264351  77.3052788  63.1803083
 105.1404858  77.8402376  62.7809048 106.4481258  77.1439838  62.4705791
  14.2172003  97.2439384  87.4769402  14.7367001  96.4542103  87.3263264
  13.7187076  97.0547104  88.2718849  25.9439945  98.6938381   8.7187266
  25.1087332  99.1592312   8.7632358  26.3911128  98.9258385   9.5326620
  50.9007406  88.3181858  85.8333015  50.9414530  89.1539669  86.2981033
  50.1280642  88.3929634  85.2732849  22.0517826  18.8761139  62.5687170
  21.5273118  18.6704469  61.7948532  22.9056096  18.4815419  62.3911715
  49.8389244  40.4013491  14.7864866  50.7121754  40.4954433  15.1670349
  49.6050358  39.4871116  14.9468017  44.1046238  89.3547535  19.9116528
  43.3175135  89.5359135  19.3979692  44.8285246  89.5973587  19.3342972
  99.4470787  30.7855678  89.4257927  99.1091537  30.4365349  90.2505398
 100.0687408  31.4639235  89.6896076  82.7270126  79.2987394  76.2543535
  83.5830116  79.5055199  75.8791924  82.5749493  79.9895573  76.8992424
  29.2807674  87.6532841  10.0245655  29.4606113  86.7138386   9.9880362
  28.5558963  87.7823353   9.4128978  74.1577482  29.7944808  41.0605240
  75.0832796  29.9445963  41.2530947  74.0440559  28.8486385  41.1537361
  36.3246632  54.0897226  15.3071463  35.6514931  53.4224558  15.4406512
  37.1500087  53.6055326  15.3314853  42.6903248  37.7512503  49.9675560
  42.7773380  37.0815182  50.6458759  43.2504272  38.4680367  50.2654314
  25.5381227  25.6763911  83.3265400  25.0521350  25.4605889  82.5306225
  25.0673223  25.2220774  84.0252304  38.2847929  92.6954079  86.3138008
  37.7235079  93.1147861  86.9659615  39.0733600  93.2375622  86.2923050
  99.5056725 104.8612022  86.2778378  99.7232151 105.7217121  86.6362095
 100.2334023 104.6551323  85.6911659 107.5905991  19.7545481  61.9043589
 107.2601509  19.1017807  61.2871647 106.8643475  20.3680325  62.0158148
  96.8331528  34.2375541  57.9987764  96.8038177  35.1527667  58.2776260
  96.2639427  33.7802315  58.6177254  42.9758024  46.7704296  19.3455017
  43.1435776  46.7107582  18.4050107  42.8973722  45.8607960  19.6329880
  71.5137577  70.7442188  42.5395584  72.4708223  70.7473803  42.5238419
  71.2647724  70.1371288  41.8426514  93.4378910   2.0750278  88.3367634
  92.7590275   1.7179193  88.9093399  93.8995934   1.3054779  88.0038166
  43.7591362  55.8474779  -0.0805591  43.8775349  54.8987246  -0.0349224
  43.2960224  56.0701752   0.7270069  25.3680801  26.2566161   1.8088095
  24.4345713  26.2996769   1.6016012  25.7693720  25.8750248   1.0280503
   5.2179825  47.5509357  40.6851959   5.6254196  48.3363676  41.0503292
   5.6023479  47.4652386  39.8127580  97.4870491  75.7386780  86.4740849
  96.5571022  75.5127764  86.4941502  97.9369450  74.8960400  86.4125156
  39.3185258  58.8833046  17.0260680  39.5362949  59.1112661  16.1222756
  38.4702611  59.2991352  17.1802294  39.9008369  85.1093960  11.9157195
  40.2456093  85.5135155  12.7119911  40.4942751  85.4001999  11.2232637
  49.1625595  43.8771391  15.3348935  48.4835768  43.9963913  15.9989643
  48.9195919  44.4807339  14.6328437   7.6836199  20.9205437  77.0619011
   8.3756483  20.9650660  77.7217102   7.1663213  20.1539207  77.3087263
  34.5370817  56.6240025   5.4225314  35.0387859  57.4386454   5.4521573
  34.5132756  56.3241911   6.3312554   5.9518957  91.1664867  64.4800091
   6.0271001  90.6966591  63.6494398   5.2714789  91.8214035  64.3239689
  89.8267269  62.1828222  15.0994015  89.8252678  61.3024044  15.4750216
  89.4008732  62.7266502  15.7620776  45.9212542  64.5011997   9.2205220
  45.9111357  63.6758566   9.7052270  45.7733488  65.1721764   9.8869646
  79.0369844  66.9217491  26.9140363  79.8879480  67.2373343  27.2181630
  78.9335585  66.0683823  27.3351121  27.2386432  63.0748749   3.0212206
  28.0945659  63.4281826   3.2637101  26.6517496  63.3699322   3.7174454
  80.9992504  99.2711449  91.6287613  80.9609890 100.2275848  91.6270733
  81.3571453  99.0442467  90.7704735  55.7477665  50.9805536   6.2246859
  56.5943146  50.5378914   6.1643600  55.9575605  51.9108629   6.1425608
   7.2503692  30.0914168  80.3093719   7.1473277  29.4972610  81.0527325
   7.6946586  30.8567309  80.6742477  19.2167497  15.7575166  88.4306145
  18.3365154  15.8795238  88.7863350  19.5594037  16.6455388  88.3294392
  45.5778074  56.9903803  29.0922451  45.8664417  57.1032810  28.1866121
  45.1564741  56.1309767  29.1039705  64.8907852  38.0875158  38.8667226
  64.5426941  37.2107816  39.0292001  64.8843861  38.1749082  37.9135418
  78.7161779  53.2245302  30.6554556  78.8542700  54.1629362  30.7841063
  77.7796268  53.1427193  30.4754257  18.1739581  35.6813908   2.6373437
  18.5016835  35.5696487   1.7449637  18.9289474  35.4937243   3.1950209
  14.6892822  25.0836635  69.9622536  14.6063375  24.2533517  70.4312229
  13.8217580  25.4829764  70.0269461 104.2283440  61.0078573  20.6963277
 105.0934219  61.4161777  20.6624699 103.9388847  61.1345625  21.5998697
  62.4970961  81.3432884   1.0892803  62.0300817  81.9437218   0.5082391
  61.8695927  80.6416988   1.2631984  22.9263449  76.2866259  22.3563528
  23.8280559  76.3058138  22.0357561  22.9956937  75.9396124  23.2457376
  11.4827335  30.4735804  91.1956215  11.8897784  29.6719623  90.8670521
  11.8312550  31.1664724  90.6346703  20.7433081  57.4494886   9.7433186
  20.1208758  57.1963692   9.0615988  20.2212405  57.4797535  10.5450428
  11.3691998  14.2315435  10.7621777  11.0758853  13.5354793  11.3501322
  11.8352616  14.8446584  11.3306046  67.7721548  90.4595947  89.9385738
  67.1141529  90.9809113  89.4787025  67.2806454  89.7268677  90.3097439
  28.5512400  77.0415545  21.2278390  28.9980268  76.1950731  21.2368178
  27.7998805  76.9096804  20.6496525  59.5026398   0.6737789  25.2977180
  59.1496468  -0.1059799  24.8692250  58.8829565   0.8608217  26.0028720
  64.2722940  55.6522274  88.8426113  65.0430202  55.8674431  88.3173561
  64.4613171  54.7850657  89.2011261  26.0872078  64.4900370  26.7483735
  25.3263831  64.8188210  26.2695384  25.7729435  64.3707848  27.6446152
  97.4033070  85.1279736  46.6055155  96.4601040  85.2377796  46.4849520
  97.5586033  85.3749847  47.5171614  91.5888500  93.8460159  85.7319736
  91.0424614  93.3187485  86.3147831  91.0053539  94.5356560  85.4154873
  69.0159607  53.0749989  31.4511013  68.4027004  53.1276083  32.1841574
  69.2006540  52.1402168  31.3599467   8.1271756  23.3354926  89.9155140
   7.4054152  23.8488984  90.2784252   7.6991433  22.6271987  89.4345379
  19.5132458  86.7819786  79.6754694  19.5949316  86.7634106  80.6289959
  19.2229915  85.9000397  79.4427252  12.1849370  73.5708714  43.3082581
  12.5388527  72.6995182  43.1301641  11.2471139  73.4271622  43.4350109
  27.9606056  12.7612126  56.0931110  28.8564134  12.6129639  55.7901573
  27.5846958  11.8840683  56.1675549  98.2819653  84.6225166  53.0761242
  98.5549450  83.9956570  53.7460184  97.4376202  84.2923737  52.7690268
   0.3354669  78.1943798  75.1974964   0.4970264  77.2597599  75.0685835
   1.1649346  78.6144447  74.9699831  71.1367416  74.1177130  62.9129124
  71.3959455  74.5109081  63.7462425  71.1052465  74.8528719  62.3007154
  78.1459618  10.1669323  33.1748056  77.6568365  10.0323439  33.9865160
  79.0581846  10.2428627  33.4546494  45.5083799  25.6155682   1.0360708
  46.2361336  26.2347412   0.9792085  45.6346083  25.1740623   1.8759349
   1.9750021  26.5069938  78.8543749   2.0347959  26.3416672  79.7952890
   2.8573892  26.3368011  78.5247374  69.0010118  25.8754683  21.6889453
  68.1461811  25.5908656  21.3656902  68.7995195  26.5523744  22.3350358
  61.3037205  66.9439125  11.6954422  60.6418180  66.9437695  11.0039842
  61.5715551  67.8598118  11.7704284  31.8256426  32.6377439   6.5086168
  30.9123063  32.3513770   6.5021133  32.1157908  32.4924827   7.4091411
  32.9940128  53.3232021  11.2435734  33.6946321  53.9198542  10.9801793
  33.2548332  53.0159712  12.1117961 102.5772190  20.2136350  73.1073093
 102.7779579  20.3105259  74.0381956 102.6959991  19.2800415  72.9325867
  16.3546836  70.5491114  42.6944828  16.5330732  71.1605740  43.4089947
  17.0638156  69.9081707  42.7450752   7.3686528  86.3082409  64.7705793
   6.6797078  86.7238903  64.2521000   7.3914909  86.8105221  65.5850840
  85.8581829  70.9709740  86.1513519  85.9047890  70.5786371  87.0232010
  86.1406994  71.8763399  86.2807083  49.6223068  61.1997128   9.7389174
  48.8616323  60.8675528   9.2621863  49.4649887  62.1408129   9.8151428
  92.8892136  23.2559156  84.2584991  91.9661045  23.1551766  84.4907665
  93.2242966  23.8998365  84.8824501  64.2189312  81.4456463  13.9277005
  63.2942152  81.1998749  13.9006197  64.3640327  81.9225597  13.1105518
 106.3181496 102.2236633  55.5564928 106.7853260 102.2973824  54.7242975
 105.8380413 101.3983059  55.4893446  36.5801668  58.2169676  19.2075837
  37.4130964  58.5295439  19.5607889  36.4076066  58.7886572  18.4595013
  74.6595383  72.0810366  91.9857883  74.8189402  71.1373663  92.0034790
  73.9124155  72.2087383  92.5703716  36.1693668  56.1353827   0.7555113
  36.0947061  56.6654873   1.5490152  37.0907402  56.2062407   0.5059462
  29.5917678  18.7226105  81.9784641  29.1223288  19.5549703  81.9233608
  30.4725122  18.9229250  81.6616154  39.5779085  43.7653637   2.9933921
  40.4276752  43.7581491   2.5528499  39.6993208  43.2014036   3.7572247
  21.6285849  56.2537766  26.3303661  21.0200310  56.2388611  27.0690632
  21.0707664  56.1572123  25.5585194   1.5215871   4.1170707  76.0146761
   0.9587395   3.7597734  75.3278208   2.2190902   4.5703360  75.5411053
  85.7426929  38.4799075  85.7877254  85.6550789  39.3483973  85.3949451
  85.2622795  38.5408807  86.6133881  30.7813597  34.8975801  20.5596185
  30.1109457  35.4712844  20.9306169  31.3841033  35.4915810  20.1122975
  59.3994045  66.1471510  14.7486293  60.1745033  65.7272720  14.3755877
  58.8620043  65.4206657  15.0643039  66.6434097  61.2163258  29.6246338
  66.5757656  62.0990944  29.9884677  67.5672770  61.1232185  29.3921852
  65.2198553  56.6730499  12.5398505  65.6354952  56.0635471  11.9299436
  64.4038725  56.2406778  12.7917540  33.8806796  58.5055923  28.6608624
  33.1782722  57.8584051  28.5975838  33.5164070  59.2017317  29.2076015
  17.8361332  14.7053099  76.4019632  18.7624753  14.6665215  76.1640167
  17.6922262  13.9219761  76.9329166  10.5097544  47.6123238  50.9923649
  11.3102114  48.0775738  51.2353516  10.2990043  47.9389811  50.1176596
   4.0977344  22.8850913  86.0757256   4.9816766  23.2422471  86.1612701
   3.6137789  23.5562181  85.5944633  73.9777660 106.1265278  65.3810692
  74.1443682 105.2239895  65.6529236  73.5447788 106.5276051  66.1346579
  33.4102464  41.3868761  62.5272512  33.7691045  41.7484570  61.7168760
  33.3567500  40.4448462  62.3661423  35.4931402  11.2842119  85.8939171
  35.6487441  12.1182883  86.3370132  34.5398068  11.2053275  85.8597946
  22.7557063  37.8692245  61.2565422  23.4267783  38.5066485  61.5006495
  21.9307232  38.2775927  61.5189743  81.5230083  58.1478739  19.8353124
  81.0328770  57.5390959  20.3879404  81.2154388  57.9659843  18.9473069
  47.1232176  36.3905001  54.7761965  46.5559244  37.1148801  55.0401783
  47.2879362  36.5421534  53.8455534  58.3372307  76.0946512   8.6627036
  58.0319214  75.2954435   8.2334167  58.3255911  76.7570591   7.9718250
 104.9392223   8.1911176  73.6038017 104.0864182   7.8331006  73.8503599
 104.9409676   9.0769982  73.9663506  70.1315880  88.9876080   8.1250006
  70.8868694  88.6158657   7.6693821  69.3733597  88.6061001   7.6825476
  57.4864197  60.7110929  20.4147983  56.5733242  60.4413223  20.5133367
  57.7545595  60.9748554  21.2950063  74.8264408  92.2989750  44.4318962
  74.7102594  93.0769730  43.8864946  73.9598942  92.1360493  44.8044300
  92.2239113  17.4950767  13.9311755  91.4090633  17.0296156  14.1198337
  92.8969097  16.9978487  14.3960083  26.1173224  50.6152201   2.7001730
  25.8879924  50.9014797   3.5843089  25.4675555  49.9446821   2.4894331
  67.4699831  48.7494421  14.1860497  68.2422972  48.1988955  14.0569615
  67.7884626  49.4924402  14.6986485  15.5850947  21.0382009  78.4839201
  15.3705263  20.3114796  77.8990555  15.8671439  21.7412901  77.8988171
  24.0299678  65.0395155   9.9832201  23.8421845  65.3606224   9.1012561
  24.2497420  64.1160536   9.8601568   2.2200027 100.4760456  18.3557773
   3.1569460 100.2810001  18.3376896   1.9063021 100.2251053  17.4869549
  66.0596848  50.3681612   9.7103089  65.6957531  49.5293999   9.9936217
  65.3699732  50.7597399   9.1744000  95.7849789 106.9176292  87.9166698
  95.2426338 106.7153740  87.1543121  96.0997963 107.8074265  87.7573586
  73.8131523  97.4934006  17.2298181  74.1861105  98.1873608  17.7734554
  73.3652496  97.9576969  16.5226853  54.2528152  79.6313620   6.0349137
  54.1312027  78.6819220   6.0335904  54.5896006  79.8309088   5.1614213
  51.7670250  38.0271721  38.5496259  52.5517368  37.4798274  38.5792422
  52.0859289  38.9126658  38.7240791  66.2419939  61.9188738  36.6063595
  65.5731964  62.2384930  36.0007262  66.9976234  61.7290449  36.0502863
 113.1564331  17.0537233  87.1720219 112.6872253  16.3922966  86.6634941
 113.9870548  16.6360509  87.3997211  92.8990841  34.2068386  16.6047490
  92.0326996  34.6136880  16.6143179  93.2603645  34.4328427  15.7476437
  67.5729465  75.8547020  26.5429425  67.8533030  75.2948713  25.8189106
  68.2419014  76.5376854  26.5905261 106.2713337  46.9088650  73.4966612
 105.6982231  47.0506668  74.2500973 106.8456841  46.1914206  73.7642908
  22.6057100  39.1389465  79.9622583  22.5759768  38.1869388  79.8672438
  21.9217038  39.4597864  79.3745232  16.8526495  20.7877302  46.4531898
  17.5401640  21.0460830  45.8393383  16.4098442  21.6067362  46.6754198
 107.3369598  18.6998069  81.7858028 106.4001179  18.8862514  81.8474483
 107.4383736  17.8427994  82.1999073  77.7384472  84.1490746  16.0447991
  78.1789637  84.4476700  15.2491760  78.3103800  84.4352245  16.7570090
  53.8900566  72.1436167  15.1954818  54.7043276  71.8346596  15.5926478
  53.2056761  71.6238546  15.6170332  30.2773738  44.5124865   2.2727124
  30.3094625  44.0893126   1.4147344  29.3832016  44.3633556   2.5800338
  70.0881243  69.7981167  37.0681477  69.5994520  69.7611523  37.8903818
  69.7304201  70.5591965  36.6109443  41.2469959  57.6581335   5.5265689
  40.7316208  58.4409475   5.3320694  42.0059204  57.7208185   4.9466220
  24.8583746  10.8201313  74.6155214  25.6925201  11.1446023  74.2761803
  24.6436453  10.0765550  74.0523005  69.4542170  45.8659315   5.9355968
  68.7294006  46.4437914   5.6969374  69.8354530  45.6015873   5.0983334
  62.3090458  66.5303183   8.9274651  61.3683319  66.3573647   8.8903445
  62.3903894  67.4595451   8.7126291  46.3780069  84.5146561  10.4042757
  46.8182802  84.2982006   9.5823663  45.9646082  83.6956882  10.6774473
  79.7713137  86.0911369  22.6136398  80.2685452  85.5962658  23.2648659
  78.8741589  86.0920906  22.9473305  62.6847315  43.5014200  31.2986946
  63.2874727  43.3478832  30.5711246  62.3853350  42.6277113  31.5501499
  21.0093832 104.3904781   9.3486106  21.6470337 105.1003361   9.4243389
  20.8808064 104.0871334  10.2473211  32.4726057  75.9238148   9.2866838
  32.8921247  76.0307646   8.4329879  31.7192745  75.3590155   9.1142792
  63.0457878  37.9190969  41.4453125  62.5240946  38.6779976  41.1842823
  63.2075167  37.4471855  40.6283808 113.8751888  10.3984809  87.5463867
 113.1542110  11.0185719  87.6554775 113.4939289   9.5474678  87.7623749
   6.8792021  16.5422451  82.0277309   7.1240389  17.4659204  82.0834923
   6.9645303  16.2173104  82.9240417  96.9702625 101.2106514  88.2255173
  97.8137875 100.8090115  88.0172443  96.8844509 101.9272709  87.5967789
  68.9198732  79.3816853   0.9971404  68.6190939  79.0422297   0.1542106
  68.3442545  78.9687014   1.6408321  90.8788681  74.0554142  12.5088608
  91.3746071  73.4612846  13.0723226  90.0291920  74.1421747  12.9410088
  71.5853930  62.0892191  25.1900077  71.0152721  61.4759779  24.7261882
  71.3167095  62.0199823  26.1061096  62.7206182   7.5126708  81.5988922
  61.8532848   7.9171407  81.5797329  62.9302788   7.3518693  80.6788826
  52.4056721  73.7761211   8.6123514  53.2954502  73.4785175   8.4227449
  51.8463230  73.0501509   8.3360642  42.4650097  80.9766388  10.6918907
  41.9788837  80.2156734  10.3743112  42.3924875  80.9264660  11.6450191
  79.3998909   0.9826214  75.7266045  79.8495245   1.3342448  76.4949942
  78.8908482   1.7195442  75.3888893  36.4788294  60.0081491  17.3520446
  35.9044361  60.2752113  16.6344213  36.9981122  60.7884407  17.5462627
  73.4996462  59.0214825  38.0128098  74.1264486  58.2983875  38.0347824
  73.3781242  59.2048931  37.0812392  68.7446737  65.3793859  34.3292928
  68.1428862  65.5583572  33.6067629  69.4560909  66.0085630  34.2099071
  54.5883369  57.0739555   9.0849143  53.7004566  57.4064159   9.2167109
  55.0046492  57.1560478   9.9429220   0.3722074   0.5298181  76.7029285
   1.2763755   0.8295734  76.6088104   0.4432653  -0.4202254  76.7956686
  43.9535046  77.6292419  11.0972857  44.2622614  78.1169701  11.8608451
  44.5083952  77.9327297  10.3787994  41.7079067  50.0214291   5.9392250
  41.1879730  49.3065500   5.5720145  41.4611435  50.0467157   6.8637240
   4.9909371  31.1923718  89.9453068   5.3135687  32.0707965  89.7440243
   5.7559025  30.6265235  89.8410225  65.7271671  69.2333555  12.5742126
  65.4786205  69.1630125  13.4958994  65.6913519  68.3344555  12.2472084
  17.9128325  68.7975168  12.2522271  18.8066208  68.7442589  11.9137919
  17.3584604  68.6066341  11.4956105  23.5332513  99.8874378  14.2139912
  23.1381249  99.0608311  13.9368033  23.2620049  99.9884987  15.1263762
  55.6123638 106.2097836  82.1539879  55.7439661 106.0967541  81.2126446
  56.3216496 105.7089233  82.5568390  65.6011200  88.4286499  55.3104401
  65.0059080  88.9447117  55.8541584  66.4259338  88.4239960  55.7961321
  42.5159788  58.5079336  27.6315880  42.7889061  59.0594053  28.3648109
  43.3307981  58.1322908  27.2981358 107.4636078  12.8385925  88.6381721
 106.9590282  13.4826541  89.1349792 106.8478203  12.5025535  87.9869270
  64.9400043  80.0031185   0.1185231  64.1338634  79.6147251   0.4584037
  64.8823357  80.9268284   0.3627709  64.7617722  95.4920006  88.3360386
  65.2329683  95.4667950  89.1688442  65.4430866  95.6376839  87.6796722
  46.1102867  57.2931814   1.9553691  46.0475016  56.5433598   1.3637127
  45.4655790  57.9167271   1.6210341  61.5197849  66.9761992   5.2098852
  62.4468136  66.9144678   5.4401851  61.2549162  66.0725164   5.0383347
  50.5699015  81.8194294  15.0122392  50.7339096  82.6951408  15.3621733
  50.1068115  81.9734097  14.1887903 102.6158714   0.6904495  10.6537628
 103.5099411   0.8619043  10.3580117 102.0654297   0.9479228   9.9141979
 107.5136375 104.4631767  90.0885296 106.5586090 104.5073223  90.1354885
 107.7792645 104.1120911  90.9384823  97.2562695 102.1071434  18.8118505
  96.3183784 102.2176361  18.9680040  97.6325607 101.9929218  19.6845448
   9.4842052  33.6117649  85.9375668   9.5338708  32.6973152  86.2160397
  10.3921831  33.8580322  85.7610416  48.5398006  50.1781178  22.3365426
  48.2509661  50.4390955  21.4620733  47.9330778  49.4831228  22.5916958
  89.8446751  35.1651931  87.9571724  90.4786015  34.7438455  88.5375500
  90.3713608  35.5055404  87.2339821  40.6130600  56.9954920  26.3120246
  41.5676212  57.0371580  26.3695192  40.3538322  57.8625154  26.0000896
  61.5633249  61.5124846  21.6543651  62.4456501  61.4491987  21.2886763
  61.1332130  60.7012558  21.3839197  76.1459494  76.0133266  37.9761171
  76.7309093  76.2929630  37.2719455  76.6390514  76.1831665  38.7787628
  16.0070312  50.3475904  10.8218455  15.1326323  50.2626657  11.2019074
  15.8552599  50.7172680   9.9520546   5.8417851   1.1858302  37.0289636
   5.1347053   1.8304801  37.0025611   6.2468332   1.3096254  37.8873587
  55.8268023  73.2046747  29.2278767  55.3697538  74.0276241  29.4013548
  56.7064238  73.4710073  28.9603615  98.4073830   3.8310719   9.1245967
  98.6450291   4.0556636   8.2249773  99.1901588   4.0338111   9.6368337
   6.3036627  21.1282110  68.7571192   6.4685702  21.9580221  68.3094025
   5.3764319  21.1630321  68.9921999  79.4304895  82.0703220  91.8171978
  80.2600479  82.2227192  91.3646030  79.6373892  81.4131260  92.4816704
  70.8691072  39.5902824   9.7880751  70.0987577  40.0904655  10.0575340
  71.4783144  40.2494001   9.4554198   6.7066640   4.8426104   2.2350225
   7.2040939   4.4129020   1.5392163   5.7983148   4.5884746   2.0720825
  76.1140299  94.3750858  86.8517590  76.2127495  94.8959351  87.6487541
  76.9322872  93.8830090  86.7843342  94.0102386  12.8005898   4.8844206
  93.9331532  11.9393826   5.2950466  93.1467056  12.9630613   4.5047525
  85.6155586  93.5064697  77.7495050  85.1945114  93.3117676  78.5867882
  85.7228470  92.6523209  77.3310089  98.5406303   1.1013577  52.5071907
  99.1795540   0.6175626  51.9837856  98.7072849   2.0206428  52.2989273
  52.2351360  71.0212803   4.2856488  51.4921761  70.4362154   4.4337511
  52.6832724  70.6514978   3.5249463  14.3058872   5.5212891  71.7383289
  14.4409657   6.1838120  72.4158621  15.1659656   5.1171166  71.6237020
  49.6063185  98.2192802  34.8354340  49.9448252  99.0630245  35.1350117
  50.1475096  97.9997063  34.0770578  61.5561533  82.2135735   8.3161801
  61.3304424  82.2136116   7.3859721  62.2901249  82.8241825   8.3845717
  28.8534212  59.1889906   9.3236607  28.6168694  59.4290161   8.4277463
  29.4367743  58.4366655   9.2239755  45.1911116  40.4642105  80.3672314
  45.3865337  39.8459911  81.0713959  44.3626308  40.8678484  80.6259441
  51.3053322  63.8440704  19.4242132  51.4260578  63.3227253  20.2178502
  51.4740467  63.2321787  18.7077224  96.6419697   4.3514991  65.1022863
  96.4908981   3.6677727  64.4496536  96.5063572   3.9143324  65.9429598
  56.1058617  75.7867575  17.3486149  56.6926956  76.5260458  17.1895254
  56.0955858  75.6897163  18.3008277  79.0641832   2.1976687   9.2639124
  79.0181065   1.8658476  10.1605749  79.9970007   2.1807471   9.0499043
  84.6130848  12.2273481  89.6385574  84.7157669  13.1615162  89.8202705
  83.9101982  11.9453251  90.2239037  17.8382778   1.2971872  74.0014076
  17.5556839   1.7782125  73.2235956  18.2898688   1.9502780  74.5359802
  56.2663364  65.5290079  20.7984447  56.9420290  65.1776028  20.2186346
  56.4080191  66.4755726  20.7852745  65.0150967  60.3682280  27.8566027
  65.3978729  59.7756243  27.2096634  65.7644939  60.6973553  28.3528948
  65.7923031  85.8741283   1.7272437  65.0471592  85.9339046   1.1294010
  66.2444878  86.7122746   1.6309233  26.3348436  27.4112177  40.9828138
  26.4081669  27.5774550  40.0430155  27.2383380  27.2945428  41.2766123
  28.8898849  84.3632126  10.0499332  29.0922976  83.4319115  10.1390779
  28.0416131  84.4663048  10.4812574 104.4523716  24.7876501  79.4345474
 103.5366344  25.0367522  79.5594358 104.8555088  24.9190593  80.2927113
  12.6595914  42.4135876  91.1106300  13.1953144  42.3058224  90.3247452
  11.7961025  42.0863199  90.8586121  12.2472858   3.9792040  90.4994488
  12.8311360   4.0171143  89.7418785  11.8804264   3.0954313  90.4751205
   4.4822794  89.1418934  30.0497055   4.5316455  88.4901905  30.7490468
   5.3478217  89.1211891  29.6414900   9.0536672  74.4619322  29.0610790
   8.7133908  73.7637234  28.5016584   8.3251631  74.6793461  29.6426654
  59.2329216  86.7438793   3.5494652  59.6066284  86.1473751   4.1981250
  58.6641884  86.1901760   3.0145019  35.0095510  53.1262541  30.7748961
  35.6319308  53.0445719  31.4975309  34.7491097  54.0472746  30.7860565
  71.3915062  84.1721058  11.2535989  71.2205553  84.4291782  10.3475523
  72.1327972  83.5692978  11.1957312  63.2127523  94.9155521  12.4985385
  62.7212667  95.2633762  11.7544365  63.8884687  95.5721855  12.6672673
  76.5732622  64.4987440   1.7063545  76.7696047  65.2486515   2.2678883
  77.3940992  64.0079594   1.6664962 103.6579227   4.2794335  79.1258097
 104.4553280   3.8522753  78.8128948 103.6811161   4.1635948  80.0756931
  28.0630994  82.6731586  20.1163864  28.7734127  83.2752037  20.3382611
  27.2646475  83.1544113  20.3334236  36.6231465  62.4598360  23.0707192
  37.1454382  62.0205259  23.7418723  36.1741638  61.7489624  22.6132178
  28.0282283  66.1831522  67.4994230  28.7847590  66.5592337  67.9493713
  27.6085949  66.9295454  67.0715952  54.2866421  98.7850475   8.8513613
  53.6329746  98.1493568   8.5600823  54.7625732  98.3361530   9.5500833
  40.8288765  68.4548283  18.3433759  40.2437782  68.5312796  19.0970659
  40.4797935  69.0769053  17.7050984  78.7945890  63.2684040   0.3654843
  79.0409803  62.4035311   0.6933831  77.9492140  63.1306410  -0.0618255
  55.2869892   7.8999078  79.2568922  54.8615170   7.8023630  80.1087666
  56.0722351   8.4160787  79.4390678  27.9774690  67.3459196  16.1984169
  27.3357701  67.9927826  15.9051204  27.6687574  66.5181828  15.8299387
  71.9382143  77.4717855  79.5490789  71.4143896  77.7003717  78.7812281
  71.9725323  76.5152502  79.5394802  24.6190619  47.8065348  13.8798535
  25.2935028  47.1831512  14.1495788  24.2496252  48.1301022  14.7014689
  20.5134773  79.4752121  22.6349521  20.2165890  80.2754879  23.0681252
  20.0905275  78.7681198  23.1221581  50.1785660  87.8231525  18.1798983
  50.2781057  88.4194088  18.9220572  49.3268824  88.0474663  17.8049994
  42.7268982  52.8592110  35.1685643  42.0561504  53.3966398  34.7472596
  43.1699944  53.4573650  35.7703209  29.6279526  28.0570126  63.1598806
  29.4437337  28.6711502  62.4491549  28.9913893  27.3525047  63.0386877
  49.0096331  51.0247850   8.3354425  49.1043520  50.1097918   8.6001098
  49.8202705  51.4431334   8.6254114  22.3690844  71.2608671  21.3556242
  22.0486903  72.0894337  21.7120695  21.8785000  71.1444950  20.5419803
  19.5450032  31.4960146  88.8802147  20.2278328  31.9851327  89.3392754
  18.8365042  32.1284699  88.7607956  58.3878565  82.7581787   7.9086441
  58.2409143  82.6606846   8.8494605  57.5747967  82.4527168   7.5063223
  91.3645363  24.5526290  31.3139987  91.3087749  25.2027225  32.0143557
  91.9979286  23.9100361  31.6335487  39.5643306  63.7672281  24.2446303
  39.3037295  64.6517611  24.5013857  40.3907490  63.6181688  24.7040319
  29.7374797 104.7551250  17.2565234  29.0988851 105.4132652  16.9821417
  29.4421220 104.4823456  18.1251931   0.6898803  54.5829010  56.6399050
   1.0901726  53.7139559  56.6704226  -0.0304685  54.4929886  56.0160112
  42.6395464  55.5802727   7.5720030  41.7161560  55.7505655   7.3860282
  42.6425362  55.2176332   8.4578454   3.8612789  27.7264619  81.9025612
   3.9170828  28.6688614  81.7444515   3.6830992  27.6510143  82.8400040
  65.9661865  64.6635056   7.7042615  66.0780716  65.2866602   8.4221721
  65.6785965  63.8561535   8.1305271  45.4428530  52.7595949   5.1677448
  45.9132099  53.2376099   5.8507544  45.2464628  51.9097948   5.5620748
  36.6469598  65.9515619  12.8803551  36.5054178  65.4437256  13.6792898
  36.4994311  65.3269291  12.1702147  20.9205031  63.6725330  25.3915358
  21.4507914  63.4312916  26.1510277  20.6645608  62.8361464  25.0027132
  96.0855675  71.5688848  11.3045931  96.4117622  70.6693792  11.2778306
  96.5221596  71.9595575  12.0615602  76.9560623  91.7592525  22.8721213
  77.2738838  91.9194508  23.7606907  76.4157009  90.9729290  22.9491496
  30.9212184  57.2790813   9.6901667  30.9287477  56.3308620   9.8207873
  31.7599893  57.5761223  10.0429618  63.2010078 104.2171192   9.6419370
  63.8065815 103.4801292   9.5621347  63.4606314 104.6536732  10.4532588
  24.8032546  44.6564770  65.3029680  25.1278758  45.3122950  65.9200191
  24.5871091  43.9003944  65.8487177  85.7987118  88.6371803   4.9949628
  86.2036228  89.2147541   5.6420201  86.1111450  87.7623940   5.2259892
 111.6092777  26.4663672  86.4716911 111.8285656  27.3023987  86.0603523
 111.6837406  25.8249569  85.7650948   3.1220096  19.3752229  81.9030666
   3.3375290  20.2602267  82.1972656   2.3477134  19.1354811  82.4122047
  76.9285774  61.0447884  30.2044225  76.7838097  61.1985397  29.2708087
  77.5907755  60.3542280  30.2335835  20.5796409  62.5537682  12.7729368
  21.0920429  63.3177996  12.5084841  20.0040317  62.8792810  13.4649968
  36.8209743  20.0717020  92.5571632  36.7405677  20.7364249  91.8731213
  35.9369016  19.9873579  92.9142761  68.7493610  60.0397921  11.1067915
  68.6398363  59.1255331  11.3682592  69.6972275  60.1612997  11.0518765
  34.2812490  46.8589592  87.9004860  34.2567253  47.5166321  88.5955429
  35.1260114  46.9952440  87.4714947  88.0955601  65.6524229  26.5799379
  88.1819916  65.0207806  27.2939348  87.3164272  65.3684187  26.1019063
  71.8048334 106.5075302   9.1999149  70.8930588 106.7857838   9.2863685
  71.7831945 105.5636692   9.3576795 107.7665329  34.4609070  86.0463715
 108.1496716  34.6004629  86.9123745 108.2678890  35.0349784  85.4673100
   1.6676321  32.1177534  92.8981938   2.1928087  31.5589289  93.4710311
   2.3103252  32.5839857  92.3635889  12.1128035  23.4480405  88.3932590
  11.7260265  23.7692952  89.2077732  12.9912496  23.1607008  88.6422634
  64.1790867  76.1466599  30.1114345  64.3934965  76.2500286  29.1843033
  64.2717123  75.2081871  30.2755022  80.5790329  51.9171906  32.6603103
  80.9807491  51.3725185  31.9834185  80.8687210  52.8062248  32.4555516
  33.8742900  53.4088373   7.9522449  34.4866729  52.9819965   7.3530585
  34.3761349  54.1283798   8.3351803  94.7850227  56.9482613  25.6445742
  95.4553890  57.1959925  25.0078106  94.1284752  56.4782095  25.1305461
  87.6896095  61.4658070  11.5778863  88.0510998  61.2719965  10.7130182
  87.9608345  60.7264853  12.1220100  59.0632200  69.4559669  21.1124015
  59.2542982  69.5217657  20.1767778  59.1403866  70.3533840  21.4363074
  37.2672939  54.8271990  86.5670967  37.1833348  54.2224932  85.8298683
  36.5379643  54.6029711  87.1450520  10.4447401  17.6943719  60.3544140
  10.9488761  18.1933999  60.9971046  10.8338439  16.8199921  60.3714037
  39.6224070  78.9812136   4.9543092  39.4823503  78.0628538   4.7235894
  38.8516736  79.2188978   5.4697806  76.2595749 105.3713322  10.7663655
  77.1410561 105.7253933  10.8841240  76.2173986 104.6285152  11.3685858
  82.9140854  52.4657488   6.1736870  82.4228096  53.2382631   5.8942151
  83.3658981  52.1703386   5.3832257  64.4361067  84.0108681  82.7690697
  64.9031496  84.3545914  82.0075226  63.6544609  83.5964298  82.4036884
 111.2411880  86.1727524  77.5581455 111.7926025  86.4310741  78.2966852
 110.5740929  85.6052208  77.9443073  93.4850311 105.3875828  69.7576094
  93.5126686 105.0478745  68.8631487  92.5569344 105.5546761  69.9217892
  81.2398338   7.2203100  10.5311239  81.7889023   6.5382099  10.9177649
  80.8262062   6.7970228   9.7788119  53.2035685  81.7405796   0.5251902
  53.7452030  80.9622478   0.3945710  52.3052645  81.4281368   0.4172111
 105.8287621  81.0511684  82.1984100 105.6175518  80.4923725  81.4505005
 105.9614944  81.9196892  81.8185520  48.0970287  84.8773479   6.5781623
  47.9732323  85.7478809   6.1999047  48.8379765  84.5099545   6.0962361
  89.6946812  95.4986286  83.4469604  90.6259060  95.4420757  83.2327938
  89.5664215  94.8433304  84.1327858  65.9379816  64.3319368  41.6265726
  66.0185051  64.5067501  40.6889248  66.4547491  63.5386515  41.7675591
  66.4419127  55.8015394  20.7396746  66.9095087  56.5296221  21.1489224
  65.9266281  55.4185343  21.4496183  55.4729176  93.9665413  87.5642014
  55.9194994  94.5255566  86.9283485  54.7977638  94.5284367  87.9445648
  82.6733875  88.6535645  40.6904745  82.5424576  88.0971909  41.4582920
  82.5586891  88.0640221  39.9451399  57.7120876  80.0270462  29.9964190
  57.6247978  80.9116459  29.6413350  58.0300999  79.5038986  29.2606068
  15.3492069  26.7474866  75.3573132  14.8702562  25.9362411  75.5267763
  15.1727104  27.2942209  76.1229277  23.6832643  78.9920235  40.4733849
  22.7469707  78.8063765  40.5449390  23.7301755  79.7838879  39.9376774
  11.7763126  22.6310396  61.5631533  11.2282109  22.6730275  60.7795382
  12.6597023  22.8223133  61.2480831  19.5623147  52.2323179   1.3060841
  19.8362827  52.5137138   2.1790031  20.2262855  51.5962076   1.0401183
  21.8304396  42.2145510  48.6338329  22.4321389  41.8135118  49.2610121
  22.1404648  43.1160069  48.5472822  82.2720146  38.0565548  24.5260882
  83.0481720  38.6158991  24.4952321  81.5872669  38.5734248  24.1015840
  55.9953070  86.6814995   1.0131712  55.8833361  86.2366009   1.8532658
  55.3772926  87.4117756   1.0446426  57.1611786  27.9889297  85.1831627
  57.3031044  27.0425439  85.1620197  57.9253292  28.3557057  84.7384357
  97.9004097  56.8754005  89.1940784  98.0062103  57.7543068  88.8299847
  97.7413654  56.3181114  88.4322643  14.1285253  71.9499016   3.9217576
  14.4363153  72.4082661   3.1398374  13.3441234  71.4835739   3.6328286
  30.4477119  46.8141365  72.5049829  30.0634623  46.0640240  72.0512056
  31.3824201  46.7616415  72.3054981  47.6109886 101.5185928   5.6280261
  48.4465790 101.7789841   5.2404529  47.7137804 100.5852985   5.8141249
  46.5395546  45.2282333  86.1182499  47.3932457  45.6608772  86.1020184
  46.4613914  44.8859692  87.0087433  59.2926693  75.7407570  34.8688579
  60.1900768  75.4841232  34.6566534  58.9542437  76.1209774  34.0582228
  77.0799065  81.0054779  31.0549641  77.2901678  81.3083363  30.1716185
  77.8371763  81.2602425  31.5820980  78.6446953  99.8752213   8.5539466
  77.9054928  99.3499279   8.8603479  78.5961676  99.8231602   7.5993961
  54.6854448  65.5188227  13.8050175  54.5816803  66.0873795  14.5680428
  55.5065346  65.0530052  13.9633095  73.1363392  13.4963012  15.6304777
  72.2554827  13.6443532  15.9745705  73.4092808  14.3503964  15.2954316
  90.2017117 102.6821613   7.1788037  90.1143360 103.3039379   7.9012936
  91.1207771 102.7447701   6.9187516  53.3117056  67.4762774  15.3662694
  52.3636580  67.3550415  15.3138936  53.4729719  67.7114534  16.2800062
  47.1839952  98.8395405  21.7665792  46.3949299  99.2022991  22.1690845
  46.9689274  98.7719345  20.8363080  51.8033075  78.8081217   8.8102806
  52.1903467  77.9636240   9.0410393  50.9250879  78.7808752   9.1900450
  44.7685623  47.0351553  29.4502234  43.9896250  47.5116539  29.1630936
  45.3552389  47.7140093  29.7836852   3.0523843   2.0242292  13.9022183
   2.6406607   2.0822981  13.0400443   3.0464378   1.0894313  14.1080081
  66.7980719  75.7107401   6.4438599  66.0741472  75.0950575   6.3293719
  66.5013361  76.3036299   7.1342659  75.4049540  96.7382431  15.0645733
  74.5714188  96.8578053  14.6094239  75.1598740  96.4208126  15.9337127
 101.8812180  95.8732414  24.2120457 102.0070553  96.7688942  24.5254207
 102.0509911  95.9225655  23.2713151  66.2685061  76.3547516  23.0401587
  65.7815170  75.5816460  23.3254361  67.0118427  76.0024548  22.5507045
  80.9557724  95.8379364  20.5947804  81.5286064  95.2072430  21.0310268
  80.7964516  95.4588509  19.7304058  35.7524657  28.1909895  72.0985603
  35.3111506  28.6699677  72.8000259  35.1694417  27.4565506  71.9064236
  66.8909836  65.2418089  16.8611383  67.7397346  65.5989313  16.5997601
  66.3453865  65.3240633  16.0789692  74.2968559 102.9769516  22.1156478
  73.6468410 102.2759819  22.1641970  74.1160154 103.5246181  22.8795767
  31.2789679  83.7487030   7.9463089  30.7933736  84.4552898   8.3719492
  31.2121892  83.9416885   7.0111448  67.8644419  52.3552942   9.3707061
  67.2685957  51.6674948   9.6675789  68.7095118  51.9157791   9.2763007
  67.8940105  85.9144783  10.7857847  68.0793047  85.2326298  11.4315188
  68.6907148  86.4445019  10.7617903  42.2222233  71.0583925  21.3907838
  42.8742647  70.4677582  21.0136652  42.4973679  71.9306183  21.1083841
  62.5261736  86.8332005   9.5127058  62.4004459  86.9565868   8.5718560
  61.6623402  86.9930840   9.8927855  75.3036928  68.7734938  32.7513194
  74.7639656  68.1420851  32.2756672  74.8177624  69.5960951  32.6927257
  90.7018948  70.1106501  22.2154331  90.0536823  70.5398035  21.6569591
  91.1208344  69.4664764  21.6446829   2.4288170  73.9350700  87.7291298
   2.9121456  73.2034540  87.3452377   2.2970660  74.5430946  87.0016766
  60.0139427  59.9267149  19.5693219  59.1661263  60.0213861  20.0034666
  59.9829960  60.5512810  18.8446224  10.5723071  13.0604315  72.0617819
  10.4708993  12.5065768  72.8358555   9.7852850  13.6051667  72.0522642
  92.3646641 103.5552979   5.8571959  92.0137787 103.7782574   4.9949881
  92.4320316 102.6005077   5.8487868  36.1299586  57.6329899  88.8001919
  36.7691159  58.1494379  89.2910957  35.5763340  58.2840443  88.3690739
  41.3355541  67.1489716  22.2051644  40.9958744  68.0374098  22.3125315
  40.7708359  66.7553902  21.5400171  54.8339319  55.3574038   7.2719812
  54.9669361  56.0214949   7.9483879  54.4749975  55.8415174   6.5283215
 108.2273197  13.8691449  22.0805573 108.1682587  14.4609010  21.3305092
 108.1246758  12.9948926  21.7045498  13.2976031  19.2600894  81.2007427
  12.5998855  19.8809755  80.9911633  13.4769547  19.4059253  82.1296024
  45.5367041  48.5880184  19.9356937  45.0204134  49.0260553  19.2590833
  45.1940632  47.6945114  19.9575257  74.6768284  89.3531799  23.2472324
  74.6572685  88.9083481  24.0945649  73.8319731  89.7996712  23.1915641
  37.7801108  99.9646664  17.7257025  37.9682875  99.8851395  16.7905581
  37.8852272  99.0767860  18.0675256  36.8910074  44.7992611  15.2256453
  36.1283588  44.4520664  15.6883037  36.5374470  45.4909611  14.6663773
  76.3510036  53.1999111  28.7766194  76.6984272  53.9427471  28.2829332
  76.5920973  52.4331093  28.2568860  25.8687901   8.8064617  91.6000271
  25.5616045   9.4723141  90.9848022  25.4962206   7.9877764  91.2726498
  14.0774786  64.4893503  18.2916546  14.2846847  63.5548639  18.2855344
  13.3990145  64.5798635  18.9607763  94.7137642  96.7188454   0.0993070
  93.9908218  96.0951996   0.1675090  94.5511341  97.3515034   0.7989684
  96.9032383  61.6236353  15.6760514  96.3398361  62.1162605  16.2728238
  97.3091984  60.9546852  16.2273490  46.0796309  52.7620268  18.4364367
  46.7675066  53.4204674  18.3389091  45.2659893  53.2660103  18.4510469
   6.0670799  27.5112724  90.5159187   6.4947248  27.4444675  89.6621704
   5.5785441  28.3334184  90.4754162  84.5939159 102.7685547  13.3959746
  85.3789234 103.2591820  13.1524968  84.8917389 101.8619537  13.4709239
  49.6058702  86.4409542  22.1800065  49.1997337  85.6240654  21.8902087
  49.0347147  86.7572498  22.8799820  23.0747938  81.4940929  56.6080570
  23.6030436  81.0649586  57.2811270  23.2400393  82.4285412  56.7335367
  20.5766034  18.1358576  85.6280136  19.6604681  17.9619896  85.8441162
  21.0573292  17.9118371  86.4248466  65.4474545  70.5059242  22.2158861
  64.5640421  70.8645535  22.1310091  65.8946943  70.7787466  21.4147806
  89.0676880  53.0465031  18.2905984  89.5309162  53.0530262  19.1282201
  89.1191101  52.1373653  17.9955375 113.2199574 101.1927414   6.7151427
 112.8422070 100.7015705   5.9855592 113.5806656 100.5215549   7.2944725
  97.8314590  67.5026560  30.5311608  97.3565006  66.9939804  31.1883545
  97.4039650  68.3590794  30.5362487  67.3594141  19.9916852  78.5548162
  66.5956593  19.6527088  79.0217304  67.1784735  19.8063946  77.6333141
  52.2640944  82.6374817  10.7023168  52.0983648  82.1589947   9.8900294
  53.0247974  83.1846809  10.5070186  52.9552650  76.4012814   9.6779406
  53.8123751  76.2911844  10.0896120  52.7946520  75.5691862   9.2329031
  71.3920784  94.6696186  40.1708889  71.8732500  95.4133606  39.8081827
  71.6011524  93.9410305  39.5863509  27.9383492  88.4385777  12.2669816
  28.5676312  88.1477928  11.6069186  28.4573436  88.5386562  13.0650175
  40.0833178  73.6358356  43.7797356  40.0086164  74.2695045  43.0662107
  39.3174100  73.8024139  44.3291616  99.6476650   6.8767881  18.6115015
  99.4651699   6.5372157  19.4876409  99.3301201   6.1949861  18.0194366
  10.1213622  34.2332077  68.0014467   9.5310831  33.9968586  67.2859430
  10.5740643  33.4180140  68.2176685  94.0012836  17.8915250  88.2607746
  94.4760323  18.2193232  87.4969769  94.4491768  18.2865250  89.0088463
  40.4409027  29.6663880  84.5057869  40.0630617  28.9885330  85.0661278
  41.3071823  29.3309426  84.2749977  13.9057660  71.3324118  34.3150449
  13.6609662  71.6586304  35.1810050  14.4448185  72.0289803  33.9402795
  69.7443056  99.3116856   9.6131396  69.4111109 100.2024364   9.5046657
  69.3439913  99.0035820  10.4261899  38.9349174  17.7006602  78.7484217
  38.8453460  16.8894649  79.2485905  38.2777357  18.2870018  79.1233158
   3.5783872  21.3989258  69.4489145   2.8336027  21.0273361  69.9216127
   3.3963472  22.3380566  69.4153452 110.4336071  26.3478374  65.7188416
 110.3214645  26.9174790  66.4798689 109.7462654  25.6879520  65.8102512
  50.3410816  96.2600040  45.1155329  51.2289047  96.0865021  45.4284334
  49.8671293  95.4438210  45.2750492  75.6260777  98.4500122  12.1957242
  75.0742531  97.7942657  12.6220143  75.2156782  98.5902691  11.3424194
  89.9890327  89.9856377  81.7481709  89.6347618  89.1592884  82.0766068
  89.2451954  90.4133606  81.3239193  15.2024472 106.4422035  89.0741062
  15.2319252 105.5403042  89.3933678  14.3324769 106.5301132  88.6846733
  38.9925361  59.7230530   6.3799852  38.6526752  60.4936743   6.8348122
  39.3756795  60.0700188   5.5743510  16.3673067  17.6538646  76.8333817
  15.7730877  17.5494683  77.5765085  17.2239316  17.8084028  77.2315550
  95.7554817 102.8272438  83.8048935  94.8829556 103.0881405  83.5101795
  95.9486675 102.0326328  83.3073902   5.5511504   9.5603567  91.4545822
   6.2426531   9.9990678  90.9590149   5.2869421   8.8268793  90.8992100
 110.8308220  13.2733452  67.4810839 111.1598301  14.0263546  67.9719687
 109.9042034  13.4665477  67.3387194  89.1465664  97.4909592  87.8107643
  88.9023781  97.3553085  86.8952274  88.4164333  97.1251774  88.3101082
 104.3647575  70.0611973  55.3711557 103.9078999  69.5189285  56.0141659
 104.6112823  70.8496475  55.8546877   2.5946507  94.4046593  62.7907610
   1.9543536  94.2845058  63.4920549   2.0691070  94.6257591  62.0218992
  98.4132957  94.2385387  90.5311966  97.9377079  94.2391491  89.7004986
  97.7560329  93.9956379  91.1833000 104.6477509 100.5598736  49.9719620
 104.5010185  99.6166611  50.0429440 103.8999939 100.8813572  49.4682360
  79.1482878  79.6513987  83.8043308  79.7109032  80.3002644  83.3816528
  79.5603514  78.8107967  83.6047840  74.9234104  55.5915785  61.9174957
  74.7912169  56.5199852  62.1093893  74.1489744  55.3381824  61.4152336
  67.3962164  54.4666624   7.8407389  67.3594809  55.3204918   8.2718587
  67.5660086  53.8471413   8.5503817  37.2260404  88.2373047  73.9746761
  37.1237135  87.6071167  73.2614994  38.1730628  88.3340740  74.0747595
  50.8740473  79.4970894  19.9128270  50.1214027  79.9883795  19.5836079
  50.7292747  78.6023712  19.6050000  84.6902847  60.5914927  23.6114931
  84.6346569  60.3403854  22.6894951  83.8155651  60.4190874  23.9598751
  56.4850616  45.9993362  23.9058971  56.2612581  46.7475080  23.3523822
  55.7023430  45.8514404  24.4366622 106.4798450  86.0195255  78.5111427
 106.2445354  85.4007530  77.8197765 106.4266300  86.8784714  78.0920982
  25.0086570   0.2567599  85.8005714  25.2860498   0.9311505  86.4206314
  24.6165109   0.7442109  85.0761032  70.5685711  35.7571292   5.8741605
  70.4482746  36.3010168   6.6525853  70.4857206  36.3667727   5.1408780
  65.9875727  11.6005266  32.9652548  66.8795967  11.9041395  32.7969027
  65.4289436  12.3072040  32.6415682  59.9721670  67.0501757  22.1725631
  60.9005070  67.2059870  22.3461747  59.7144985  67.7640009  21.5892148
  67.2013760  57.0275354  27.2063637  67.0922804  56.4453554  26.4544344
  67.5321579  57.8437233  26.8313336  59.1162491  75.0106716  53.9499474
  58.1816339  75.2169466  53.9635468  59.5130539  75.6587696  54.5319700
  30.8211446  33.1134033  54.0412045  30.8442426  32.6564336  53.2004452
  31.0948205  34.0072966  53.8355541  56.7685699  19.6339607   8.8495094
  56.9380808  20.5662870   8.7143672  56.3648605  19.5870805   9.7161430
   3.8371611 105.5057812  22.4208856   3.4462708 105.6051826  21.5528107
   4.7297031 105.2058411  22.2487330  12.8347707 102.8944969  87.7294254
  12.8867555 101.9400883  87.6782417  13.4596753 103.1320095  88.4144974
  17.6267922  11.2406623  89.2274952  18.0610740  10.8951652  90.0074100
  18.1098413  10.8580148  88.4950542  56.4945030  52.4574423  30.7912254
  55.7013178  52.5119257  31.3242531  56.1826372  52.5324583  29.8893690
  52.8174448  85.7811832  88.8741684  52.5693560  85.4687500  89.7442627
  52.0584106  85.5866432  88.3243942  61.1303520  83.5541248  13.4179556
  60.8588409  84.4559383  13.2468939  61.5899372  83.5973358  14.2564940
  72.9809952  40.0476789   6.3955629  73.7774086  40.1515198   6.9163048
  73.2606649  40.2115250   5.4949117  41.8793297  31.4948177  18.8356268
  42.4238777  31.4659119  19.6223032  42.0085812  32.3769045  18.4871364
  79.1119051  34.3131518  12.6445866  79.9826097  34.3619990  13.0392015
  78.5803556  34.9185181  13.1615210  50.4585218  25.0454211  68.4682465
  50.5707312  24.0957284  68.5097790  51.0792351  25.3308511  67.7978182
   6.5150708  25.1078010  80.7997799   7.0467329  24.9315929  80.0235558
   6.8957573  24.5541835  81.4815521  49.2833042  44.5262718   7.3021179
  48.4732056  44.0850210   7.5575888  49.1536808  44.7502708   6.3805681
 104.2585754  82.6537704  79.1094303 105.0852966  83.0631351  79.3647385
 103.7194633  82.6897240  79.8995495  28.2394743  40.1995134  55.0942183
  28.4129715  41.1170197  55.3047371  27.2854495  40.1421261  55.0415421
 113.0075932  75.5418968  40.4841089 113.3454895  75.8238602  41.3341427
 113.6143398  75.9201908  39.8477292  21.4052868  24.7657132  89.2156887
  20.6310391  24.2072368  89.1458321  21.4189076  25.2598572  88.3960056
  55.8572578  31.4808846  33.1570745  56.2772512  32.3314762  33.2848716
  55.0913095  31.6709423  32.6153731   8.7757045  91.5335178  65.1520634
   7.8292596  91.6723251  65.1173306   9.0358168  91.8699932  66.0095930
  29.4350839  18.5140359   4.3858460  30.1686358  18.9134288   4.8534155
  28.7138247  19.1332269   4.4981703  10.3441799  34.6566772   4.3986663
   9.4713724  34.8188043   4.0406808  10.9413505  34.8832154   3.6857149
  32.9185033  27.6866007  84.8275185  33.3253074  27.0132017  84.2822933
  31.9817829  27.6070523  84.6473503  74.4440317  81.0947895  92.3664093
  73.5341835  81.3402653  92.1986485  74.9488926  81.5926075  91.7233562
  64.1396761  33.5506439   2.3059598  63.6412239  32.9080462   2.8107804
  63.6490631  34.3664575   2.4058540  56.1380863  56.1135006   1.7058189
  55.3772831  56.6928339   1.6636007  56.5666437  56.2186670   0.8564024
  12.9745221  26.7153931  87.4111080  13.5562122  27.3574829  87.0041752
  13.5065877  26.3103867  88.0960178  89.9043941 105.9987164  84.3766022
  89.0128040 105.8596039  84.6958923  90.0857735 105.2330875  83.8314819
  71.2439299  24.7813606  39.6572065  71.0527325  24.2322278  38.8968587
  70.3868198  25.0889945  39.9520779 113.0197144  17.2189796  91.1670399
 113.2039833  16.6478682  91.9127655 112.1491241  16.9530594  90.8710766
  57.5615931  10.8026814  35.9400535  58.1723738  11.5280652  36.0704303
  57.4406099  10.4314184  36.8139863  53.1719255  50.8886766   2.7844033
  53.0356646  51.7772007   3.1133223  53.2490158  50.3507710   3.5724032
  99.0667343  16.0694742  76.8162680  99.7495651  15.5212033  76.4297819
  98.5011864  15.4542410  77.2830439  84.8437023  73.4160614   7.2760534
  85.2258301  72.6053095   6.9400561  84.0879631  73.5767937   6.7110324
  24.4096470  44.3943739   6.6592842  25.0660110  44.8044825   7.2225124
  24.1787410  45.0742435   6.0262817  39.6058726  40.0577211   0.7119792
  40.5336618  40.0410223   0.4771201  39.2658091  40.8460236   0.2886980
  41.9285583  34.8299146  20.8166146  41.0391378  35.1789474  20.7588410
  42.2020197  34.7191834  19.9060166  74.7094393  40.7091761   0.4297917
  74.1782045  40.0307226   0.0129864  75.5963707  40.5513954   0.1062319
  84.7992706 101.6091347  87.9117012  85.1773262 100.9101200  88.4452629
  85.1732635 101.4746952  87.0409012  30.2952409   0.3802272  34.7916079
  30.6770325   1.1523288  35.2091312  29.4372249   0.2840847  35.2048826
  58.1748486  43.4588242  23.4509659  57.3985243  43.9618397  23.2049227
  58.0907869  43.3358145  24.3964982  73.1032658  94.8654175  33.0875945
  72.3486662  94.7012806  33.6531663  73.7726498  94.2558861  33.3984470
  74.6984339  38.7247086   3.5524639  74.1168499  38.0638504   3.9283040
  75.5409145  38.2792521   3.4628722   5.9943473  83.8973045  74.0530109
   5.1598734  83.9815712  73.5917234   6.2159812  84.7916222  74.3124390
  76.3061905  57.5805473  26.2074447  76.3824129  58.4998608  26.4629698
  75.7287550  57.5912142  25.4441047  61.1596918  79.0348482  24.0060735
  61.2378025  79.9246120  23.6619139  61.1215639  78.4793663  23.2274699
 101.7376328  25.4150629  82.2659111 101.5780163  25.9569454  83.0386448
 101.9319820  26.0423303  81.5695000  68.2404423  31.6339302   7.7401197
  67.6552296  30.8812928   7.6547295  69.0200329  31.3889194   7.2416776
  86.0188961  88.8179302  79.1325140  86.3536644  88.9340973  80.0217056
  85.1364040  88.4672546  79.2527437  26.9273567   3.7751752  77.2051144
  27.4305892   3.2076907  76.6212034  26.7205691   4.5434237  76.6728878
  59.3833590  16.8291843  18.2326913  59.8009062  17.4418485  18.8381100
  58.4983444  16.7156875  18.5792410  33.8712907   4.6458855  90.8043766
  34.0651250   4.4862580  91.7280483  34.6504569   4.3403387  90.3398609
  71.7506123  47.5377274  10.6708765  72.4543285  48.0984020  10.3442943
  71.1147022  47.5105429   9.9559551   2.3942067   5.6897432  85.3162003
   2.8377050   5.5648005  84.4771957   1.6206414   5.1283896  85.2641392
   0.7991112 103.2756329  80.7627678   1.1537328 103.1801319  81.6467094
   0.2591091 102.4955654  80.6357670  40.2911520  17.7944660  20.9807777
  39.7916770  17.9731214  20.1840115  39.7749162  18.1929040  21.6814756
  43.0201530  54.4339323  14.6342003  43.6075068  55.1881886  14.6826446
  43.4984064  53.7294674  15.0715041  43.1093359  29.2961645  83.1734180
  43.6979008  29.7225428  83.7963295  43.5672331  29.3517423  82.3346806
 104.5256233  90.5195236  65.7545757 104.1635323  89.7034836  66.0998201
 105.4220581  90.2965736  65.5037165  50.0616455   4.9205926  63.6530113
  49.2502785   4.8107818  63.1571722  50.7475376   4.6105719  63.0616808
  91.6963768  50.2557230   2.5567004  92.5416374  50.1394415   2.1228313
  91.0501194  50.0954103   1.8690363  97.3587418  92.8626156  75.8857870
  97.8547859  92.2136784  76.3848352  97.3394012  93.6353207  76.4504004
  14.0339148  31.5929604  77.4413490  13.4010088  31.4254594  76.7430639
  14.8056698  31.0845137  77.1921396  53.4849310  42.4725580  15.1990688
  53.7522840  42.9073191  14.3892908  53.5367250  43.1566620  15.8665681
  73.1188545  90.9238430   0.4305848  73.2269988  90.8902403  -0.5198947
  73.9868054  91.1535736   0.7624254  32.8116226  72.1020985  44.4155455
  31.9602776  71.7667818  44.1344643  32.7709937  73.0410671  44.2341042
  50.6850147  36.5998816   2.0671985  51.2995625  37.1901369   1.6311258
  50.0397205  37.1809006   2.4699962  17.4914026  12.2336769  70.1005840
  17.0306730  12.8502023  70.6696701  16.8933439  12.0922852  69.3667126
  80.7175732 100.4310703  59.5320749  80.9088039 100.5238342  60.4653788
  81.5039253 100.7553768  59.0930796  90.7345486  50.6945086  13.5966313
  89.8203278  50.8314180  13.8450098  90.7016850  50.4996634  12.6600480
  80.6678867  75.9925413  42.6967192  80.3495598  76.8843889  42.8363991
  80.1228714  75.6520557  41.9873095  52.6220131  38.4708571  26.0601926
  51.9105768  39.1020155  26.1684847  52.4992132  37.8465080  26.7752719
  49.7200346  67.2285509  20.4070401  49.8068857  66.9237947  21.3102627
  49.8711491  68.1724215  20.4571557  49.5158815  84.8945332   1.2236663
  49.6441507  84.4797611   0.3705880  50.3697062  85.2703762   1.4380480
  15.6672466  14.8316514  58.2812977  15.3495884  15.7346046  58.2813358
  14.9676573  14.3316185  58.7017441  82.2318840  99.5436573  62.2297382
  82.5416565 100.3290749  62.6807213  82.5246716  98.8189888  62.7823305
  66.4700174  56.5783072  16.4847255  66.4792347  57.4951792  16.2099719
  65.7270145  56.5155888  17.0849288  24.4926596  21.0970950  88.1088924
  24.2962670  22.0254755  87.9833126  23.7185454  20.7459164  88.5489559
   2.6284519  10.9430718  90.4207325   2.9143095  10.8983326  89.5083046
   3.2729608  11.5086031  90.8461857  14.0665781  47.2659159  52.8862762
  13.7721980  46.4566994  53.3042860  14.0232944  47.9235554  53.5804462
  21.0568571   1.7624369  77.7987146  20.1437068   1.5418364  77.6150751
  21.4830971   1.7507203  76.9417334  94.0404797 107.0728683  65.1917028
  94.1789627 106.2098503  64.8015118  94.4144440 107.6850414  64.5579720
  21.5003037  65.1309967  29.0569806  21.4531898  64.2037249  29.2897487
  20.5864739  65.4081726  28.9912581  72.2340012  72.8097296   9.0010518
  73.1886959  72.8358793   9.0651286  71.9306993  72.9028177   9.9041426
  67.5357676  34.4321465   7.4817854  67.6931190  33.4950948   7.5975657
  67.4508333  34.5455790   6.5351331  88.1906128   1.5965295   7.7992380
  89.0803719   1.2503031   7.8676867  87.6272678   0.8542375   8.0180544
  35.1728463  47.1621466   7.7249080  36.0902524  46.9392061   7.5671196
  34.7653794  47.1262550   6.8595105  78.1081629 104.0553474  81.1815548
  77.4449301 103.4455109  80.8583641  77.6144171 104.8371887  81.4288807
  99.3126869  60.7423210  77.0107841  99.6988487  60.6791639  76.1372185
  98.7366009  59.9804783  77.0736456  24.0733290   4.2638233  90.6563187
  24.1673088   5.2120858  90.5657768  23.5217786   4.0061870  89.9176407
  90.3028774  49.0382051   0.4684028  90.8954048  49.3559074  -0.2129261
  90.1423454  48.1229925   0.2385161  44.7495651  62.9734659   1.1020267
  44.1795444  63.2325459   0.3780184  44.1985083  63.0522394   1.8807209
  19.6468925  79.2970324   1.2945108  19.6417487  78.5132551   0.7450560
  20.0326443  79.0074158   2.1212801  29.3382835  27.6043987  24.0958357
  28.4717798  27.7113223  23.7034464  29.1756725  27.1260929  24.9088621
  46.9391966   5.0618482  71.8632650  46.1881113   5.6551719  71.8550587
  47.5669384   5.4617810  71.2614107  51.9769001  19.4450641  73.8072014
  51.4318848  19.2619777  74.5724916  51.9316244  18.6448288  73.2839394
   6.6893858  79.8175716  85.9307289   6.9386220  79.6274710  86.8351460
   5.8802867  79.3240452  85.7964706  46.0034180  91.1644840   0.6814003
  46.7391872  90.5719948   0.5270392  45.4854679  90.7314396   1.3599551
  67.0324898 106.2874126  93.2151508  66.6344786 105.6264782  92.6486015
  67.3082352 106.9814682  92.6164150  38.2999134  51.1453533  11.9370747
  38.4598589  51.6606855  12.7276981  38.8165164  50.3491974  12.0615244
 104.4546223   0.5462860  80.1989365 105.3480434   0.6703663  80.5192947
 103.9450932   0.3424478  80.9832001  87.1788025  62.0714331  30.4245687
  86.3000870  61.8557358  30.1122189  87.7626705  61.7518187  29.7366929
   7.6320463  10.8184063  68.8603163   8.3115417  10.4489374  69.4242382
   7.4666291  10.1382303  68.2074547   4.4233453   9.2960161  86.9059467
   3.5132489   9.1985857  86.6258335   4.9114338   9.4270104  86.0930252
  47.5614834   9.0350235  80.8509064  47.0489788   8.4447473  81.4033031
  48.2516479   8.4818023  80.4850483  45.6385231  21.1075664   2.4209671
  45.4035187  21.2874889   1.5106742  46.2852812  20.4040027   2.3667903
  77.6638079  60.8749342  21.6187692  77.3660183  60.8392382  22.5277686
  76.8576241  60.8844042  21.1028171  88.1179905  83.1328583  83.1986427
  87.3071861  83.3188820  83.6721611  88.7894726  83.6251831  83.6708260
  59.8475170  55.5610752  16.9915915  59.9394703  55.8468390  16.0826814
  60.5359411  54.9062157  17.1075881  17.7544928  24.6849442  86.7574501
  17.2734523  25.1445675  87.4456215  17.0857024  24.1819310  86.2927723
  35.1587915  -0.3341387  85.1338196  35.2345133   0.0578243  86.0037994
  34.6694565   0.3103416  84.6225262  11.8204439  21.5776229  86.3124657
  12.5851989  21.0091114  86.4028931  11.8272889  22.1159720  87.1039009
  19.3332040  28.2425427  77.5009918  18.9078033  28.5224485  78.3114958
  19.4677126  27.3015642  77.6136923  18.4642875  49.6686316  86.9115543
  17.9137635  50.4291868  86.7252541  17.9972947  49.1983318  87.6021862
  49.8846340  10.0186419  74.1134119  50.5183125  10.5513144  74.5939779
  50.0515223   9.1234875  74.4085026  17.2884893  82.6532173  85.8781242
  16.8755114  82.1402073  85.1834965  18.1406462  82.2372818  86.0087204
  78.5628605  40.8178329   8.1087023  78.0654192  41.5509176   7.7462530
  77.9457140  40.3738976   8.6903268  64.0626335  33.3412051  70.3221273
  63.5995722  32.6061773  69.9202013  64.9532461  33.2809901  69.9765682
  78.1576967  13.4152663  14.2919862  78.1365490  13.7829685  13.4084809
  78.7415981  13.9964271  14.7793698  73.3743048 105.3427505  70.6160021
  72.6234293 105.9347534  70.5718946  73.2308197 104.8328972  71.4133072
   9.5079988  31.1977243  88.5542965  10.3758490  31.3029218  88.9441776
   9.6814191  30.9929442  87.6354885  71.2364388  78.4162283   4.4590908
  72.0983076  78.0185461   4.5826349  70.6711721  77.6877928   4.2020226
   5.7024866   5.1376206  70.7795477   5.7112545   5.9940571  71.2069464
   6.1399788   5.2839959  69.9408531  48.0824995  18.0611062  84.8317814
  48.7026215  17.5497293  85.3515625  47.3011780  18.1207347  85.3815174
   0.9024841   4.3131161  49.5225620   1.5820399   4.5972764  50.1338625
   0.1073558   4.7493705  49.8286390  24.6593785  42.9313707  56.8421936
  24.8137474  43.5758448  57.5328875  24.6571589  43.4431076  56.0332727
  35.9946108  76.3683176  10.7475483  36.6673779  76.1358547  11.3875282
  36.0776091  75.7060003  10.0614870   0.1998954  23.7650967  37.2234058
   1.0908184  23.4551859  37.3860192   0.3133779  24.6525359  36.8831038
  61.4878130  48.8951206  28.7659979  62.0352268  48.1754017  29.0799761
  62.0859861  49.6393776  28.6989450   0.8848241  22.4595594  82.8305340
   0.4449244  22.6340580  81.9985104   0.3609842  21.7700291  83.2384205
  45.0545931  42.0317984   1.2690492  44.9202728  42.9639292   1.0978032
  44.3423319  41.7921209   1.8619010  60.9271622  41.0759544  28.8118625
  60.6628180  41.6666412  28.1065679  60.1316309  40.9490824  29.3288350
  17.5974035  18.7200642  80.1587677  17.4878001  18.3747578  81.0447598
  17.8696179  17.9638159  79.6389389  96.0393047  31.2101197  76.2622356
  96.9639206  30.9912610  76.3780212  96.0082150  31.6877675  75.4333067
  88.6444950  60.3758812   6.0080171  89.1861439  60.9826326   6.5126914
  89.1805744  60.1522970   5.2471888  90.8164215  89.6034431  65.7890511
  90.9919930  89.4198704  66.7119312  90.0096703  89.1246796  65.5988741
  64.5180178  50.6815147   4.3536702  65.2760887  51.2572861   4.2534083
  64.1770315  50.5775928   3.4653240  59.2958784  57.1979856  25.4898119
  59.0702486  58.0383921  25.0910115  59.0269709  56.5459251  24.8427176
  50.1476336   6.5248305  41.3892221  49.5602226   6.5591091  40.6342363
  50.3308725   7.4421906  41.5919685  27.3538446   5.9773362  45.9653807
  26.4179993   6.0988247  45.8051825  27.4062896   5.7004851  46.8801641
  22.0762300  82.6653385   3.4152749  22.5420284  81.8760586   3.1390628
  22.2116852  82.7044201   4.3620360 100.8579540  97.3785210   3.7665460
 100.1578903  96.7257214   3.7645179 100.4183292  98.2018280   3.5541371
  18.6343062  83.3460712  20.2555776  19.3715024  82.8999519  20.6724191
  18.3136356  82.7218342  19.6046293 100.6253052  89.5795822  48.2730103
 100.9294701  88.9166451  47.6531506 100.7485390  89.1778278  49.1330290
  84.9869919 102.0577526  37.0791745  84.9566555 101.1056805  37.1733284
  85.8299160 102.3090363  37.4567556 108.4556007  52.2137833  83.6004257
 109.2287731  52.6856470  83.9099026 108.0792046  52.7842188  82.9302311
  67.1821451  53.0866480  91.2301922  68.0451727  52.6728439  91.2165928
  67.1495104  53.5450363  92.0698643  89.2562103  40.9108639  55.0291634
  89.4458675  40.7426739  55.9521866  89.3695259  41.8561220  54.9297428
   5.5641085  78.4137249  41.1220646   5.6415576  79.1752148  40.5472898
   6.4062333  77.9659367  41.0411596  35.0726557   9.1632414  38.8918519
  35.3998065   8.9742756  39.7713375  35.7991457   9.6095669  38.4568334
  23.3447719   3.5877618  33.9673209  22.7197790   4.2798048  34.1834044
  22.7993751   2.8427678  33.7148166 104.5362663  86.5237617  20.3003144
 104.8030758  86.1463737  21.1385417 104.5510197  85.7863998  19.6901357
   5.2816534  83.7456036  11.7135549   6.1243498  84.0048599  11.3408887
   4.6314728  84.1702461  11.1539376  45.9205914   4.4083831   7.9181600
  45.4397488   3.6108801   7.6967686  45.4319954   5.1099485   7.4876773
   7.8833419 102.4723339  38.3538151   7.8649867 101.9968128  37.5232863
   7.1824598 103.1194496  38.2748413  43.0567169  59.8687077  42.5306082
  42.1735811  59.5003462  42.5058460  42.9479837  60.7718134  42.2325945
  16.5905416  55.6050968  10.5115294  17.3832822  55.1276159  10.2669716
  15.9561288  55.3805971   9.8308301  36.6996455  89.7571754   9.7734749
  37.1737647  88.9307404   9.6815276  36.7661381  90.1686001   8.9117682
 108.3137703  87.5573826  26.4049172 108.3749294  88.1351376  25.6442022
 108.3105946  88.1503010  27.1563578 111.9039154  86.8906689  41.3317823
 110.9495449  86.8279934  41.3702488 112.1954155  85.9974957  41.1487341
  11.7476904  76.3902760  18.3122468  12.0135975  77.2425318  17.9670060
  12.5707865  75.9517956  18.5278320  21.4495087  84.7977448  19.4862843
  21.0959697  84.3542576  18.7152064  21.7363524  84.0876579  20.0605011
  12.5207424 103.0871964  25.2191496  12.8135943 103.9354038  24.8859477
  13.0187273 102.9623318  26.0270166  85.7523823  80.3149319  31.3684797
  85.2491379  79.5050383  31.2845159  85.5564594  80.8026791  30.5685115
  10.4145551  98.4195805   0.8616973  10.8922184  99.2470360   0.8035395
  10.3545630  98.1135368  -0.0432733  27.5606942  97.5405025  23.1468916
  28.1124187  97.5981998  22.3668265  27.6286340  96.6259670  23.4211922
  28.0272198  73.4836578   0.4871935  27.1838140  73.1516218   0.1795412
  28.6762619  72.9895735  -0.0136646 108.0769348 100.8747482  43.7594509
 107.2424793 101.2039852  43.4255171 108.1689167 100.0087070  43.3622837
  19.7106218  89.6497631  45.8939791  19.4821548  90.5653667  45.7336760
  20.6657648  89.6274376  45.8353615  22.7138782  98.3284473  61.2170935
  22.8471422  97.5897789  60.6230974  22.4856567  99.0594482  60.6428146
 112.0138454 105.0741959  32.4087906 111.1752796 105.1104832  32.8689337
 112.0673943 105.9083652  31.9423795  57.8467035  24.8058033  40.4257298
  58.2220459  24.8280883  41.3059855  58.5723877  24.5363998  39.8626661
 111.6003799  73.4771872  21.0820985 111.9468212  72.6011133  20.9126663
 111.4582539  73.4996557  22.0284224   7.0887917  80.8106136  54.6671152
   6.8187368  81.2055683  55.4961586   8.0181205  80.6148815  54.7865486
   4.2401335  55.9534597  49.7796535   3.7440857  56.6955471  50.1253033
   4.6061739  55.5280304  50.5550623 107.6380920  83.5039330  42.5531244
 107.2855186  84.3693733  42.7603483 106.9062328  82.9052258  42.7020168
   6.4050269  83.8849926  55.7731342   7.3278844  83.7666988  55.9980154
   6.4004320  83.9757442  54.8202562  43.6295462   8.5802281  51.6031456
  43.5778379   8.9137244  50.7074118  42.9973793   9.1072905  52.0918179
 113.3615112  96.7419910  23.5333610 112.9890823  97.6078320  23.3664608
 114.2506409  96.9188786  23.8405895  17.6493704  90.3398800  40.7049513
  17.9758263  91.0137939  41.3011885  16.7052805  90.4925632  40.6647730
  35.0609374  20.4141569  13.9907873  35.6502390  21.1672544  14.0331912
  34.5147872  20.4930592  14.7729170  30.2062917   0.9473474  30.8758140
  29.3614650   1.1523973  31.2763810  29.9825382   0.4827425  30.0693965
   3.0669096  74.8343372  15.3044546   3.7492400  74.5108509  14.7162247
   3.5148385  75.4672289  15.8657432   3.7540266  83.1259727  18.8452506
   3.6470461  83.1781960  17.8954828   4.6625078  82.8511429  18.9691937
  98.4281826  83.2141495  15.2860224  97.7208900  83.7250805  15.6796122
  97.9910660  82.6552582  14.6435213  21.6327882  70.6163311  18.6798251
  21.2717152  71.4084959  18.2819200  22.4762607  70.4927158  18.2445014
   9.6958315  88.4146214  21.4063621   9.8016393  88.1493568  22.3199677
   8.7890768  88.1917667  21.1957335  11.9274974  54.7946692  15.4392028
  11.1303639  54.4453192  15.8376563  11.6244912  55.5212498  14.8946846
  59.1771841  13.0027533  32.2545767  58.6686993  12.1921098  32.2315979
  58.6525869  13.5994971  32.7883601  67.2480440 101.0232353  89.0444660
  67.5568581 101.7559242  88.5115147  66.2935925 101.0787010  88.9978313
  52.7167940  17.9694843  51.8654776  51.8815422  17.7912426  52.2977018
  52.6886272  17.4458694  51.0646868  18.7596440  54.0148115  24.9251723
  19.1386783  54.8885679  24.8297334  18.9018404  53.5979176  24.0753412
  37.2072506  95.4882336  48.0760145  36.7543912  96.3315105  48.0825377
  36.5917659  94.8891068  47.6535845  98.5341549  51.9243717  35.8297658
  98.1201744  51.1776543  36.2625074  98.9321804  51.5541363  35.0418973
  35.3315496  71.7449141  24.9422574  34.3981457  71.8775272  25.1077962
  35.6453896  72.5983429  24.6432638 105.4363728 105.7580853  17.6801729
 105.0695896 105.6770802  16.7997563 106.0327911 105.0137329  17.7605879
  42.2461939  19.0756083  41.7133951  41.4201355  18.6773121  41.4391327
  42.8535080  18.3396113  41.7889786  52.4222565  10.3232908  17.3493361
  51.7218208   9.7027153  17.1480751  53.1446791   9.7769356  17.6589108
   4.0457109 106.4861298  51.5912104   4.8692355 106.7732811  51.1967754
   4.3005997 106.1200905  52.4381351 105.0821877  45.8544731  87.9265213
 104.1790676  45.5658674  88.0581093 105.1747131  46.6187048  88.4953976
  17.7517307 105.2072048   1.9694468  18.3453822 104.5146942   1.6792174
  18.1601048 105.5563354   2.7616423   4.6225801  74.7827911  50.9956264
   4.7721854  74.4554377  50.1086712   3.6879379  74.9878311  51.0207844
 113.4785271  91.2575722  53.6818314 112.7133274  91.7951584  53.8860416
 113.7630844  90.9143829  54.5288754  11.3782275  95.7609081  45.4785728
  11.9496834  94.9937534  45.4447222  10.6628335  95.5012417  46.0591030
   5.9156436  70.1130915  36.4195371   5.8361387  69.2484617  36.8224287
   6.4130419  69.9583149  35.6164980   0.9933059  99.4696140  29.6309066
   1.8177676  99.0097809  29.7891641   1.1666538 100.3716564  29.9001694
  78.7986135  97.7043915  47.7924871  77.9864073  98.1824875  47.6252508
  79.4727993  98.3829021  47.8288841  33.3795834 102.4686146  32.9166675
  34.0108895 101.7656994  32.7630305  33.4758353 102.6781654  33.8456774
 106.9573689  92.5189018   8.9689285 107.1568966  92.9805756   8.1545085
 106.3197994  93.0789661   9.4117188   4.7125441  86.7872906  39.1294956
   5.3609937  87.4054241  39.4666219   3.9040273  87.0139408  39.5890164
  58.7684774  79.9614573  89.7531414  59.2302132  79.5497704  89.0227032
  57.8578043  79.6867514  89.6461678   6.8947911 106.8408203   9.9527782
   6.8930453 106.6262627   9.0199369   7.0534760 107.7843475   9.9812305
  38.6289454   6.3931662  40.5327272  37.8216434   6.1250091  40.0938749
  38.8774586   5.6348532  41.0613394  52.1612263  52.7252531   5.0289917
  52.3174906  53.5799360   4.6273255  51.2078285  52.6457310   5.0596368
  70.9254169  20.7600546  48.1492519  71.6167355  21.1535263  48.6816931
  71.0771799  21.1026478  47.2684431 100.3767014  59.6959019   0.5756169
  99.6898651  59.8461390   1.2251663 101.1622715  59.5209455   1.0937933
  43.2020092  11.1304307  20.6894016  42.9862165  12.0588362  20.7773089
  43.8944864  11.1069775  20.0289774  30.0674009  10.7566488  32.4713826
  29.7724843   9.8488688  32.3993206  29.8671412  11.0025680  33.3745170
  -0.0632914  71.7002106  19.0498161   0.7386321  71.2061119  19.2201579
  -0.1380731  71.7138815  18.0956399  20.9278870 103.9515686  32.4824071
  20.8446288 104.8981953  32.5972748  20.7813263 103.8099766  31.5471506
 104.3349457  86.0276031  23.0141926 104.4678497  86.4674377  23.8539052
 105.0170422  85.3567123  22.9846215  85.8437061   1.2424465  33.2507348
  85.8114433   0.3022838  33.4276080  85.1997566   1.6210064  33.8492799
  17.9080081 100.7017994  47.7423859  17.6057339 101.5927887  47.5662851
  17.8977847 100.6296635  48.6968088  68.6011219  36.0429645  48.6248875
  69.1992426  36.7623711  48.8272095  67.8841066  36.1443758  49.2508554
  25.4065633  16.0626960  59.3150187  24.6043181  16.1578619  59.8284197
  25.4513597  16.8620038  58.7902975  39.9637651   1.9134896  16.0578203
  40.1926851   1.6122530  15.1785684  40.7086134   2.4502516  16.3285947
  26.2236738  76.9294119  53.4868288  26.2858295  77.8733397  53.6330128
  27.1290231  76.6210032  53.5250044  10.2384055  95.8611870  66.7609692
  11.1577070  95.6384945  66.9076872   9.9288821  96.1731815  67.6113129
  17.7559018  11.1606824   1.8311785  18.4945631  11.7626822   1.9217733
  17.9172552  10.7063067   1.0042933  62.5594378  45.9229231  38.1063533
  63.0098677  46.7674971  38.1123781  63.0753613  45.3805780  37.5097632
  39.1047454  16.5548372  43.6663580  39.1549206  15.6217933  43.8740683
  39.3260908  16.6054463  42.7364779  26.4309239  76.7371655  36.2141418
  26.3767672  77.4419308  36.8595886  27.0332026  77.0682955  35.5479217
  18.4727705  96.6284847  50.8293104  18.6386442  97.3914433  51.3830471
  19.3433058  96.3288498  50.5673599   9.9893594 100.5473423  46.2067032
   9.6239597  99.8240566  45.6972170  10.9024084 100.3000069  46.3529873
  25.3688359  90.3881550   0.7405630  24.4335032  90.2371979   0.8769318
  25.7948399  89.9100685   1.4520311  14.3611014 104.9330235  24.7164941
  13.9968729 105.5606556  24.0922689  15.2952600 104.9042225  24.5097303
  82.2639084  99.8736954  34.1395068  82.9309464 100.5481148  34.0112305
  82.5603104  99.3868732  34.9085236  73.0804682   6.2417936  54.4343472
  72.7209234   6.0286969  55.2954817  73.0422354   7.1971333  54.3885612
  -0.0254679 103.8002396  10.8235228   0.2515650 103.1545544  11.4735806
   0.2037763 103.4062672   9.9818218   7.8960717  77.3825550  35.6075907
   7.1135330  76.9901133  35.9947014   8.6232609  76.8830585  35.9789777
  36.2876129  94.5268440  44.5516968  35.4504442  94.1245079  44.7830200
  36.1580658  95.4608536  44.7162724  99.4597530  56.6476774  52.3738098
  99.2403221  55.7185030  52.4424839  98.6512947  57.1027565  52.6094437
  49.1033363 104.8822880  30.6127715  49.6493673 105.5719185  30.2353048
  49.3799734 104.8316097  31.5277219  97.3918343  99.5444489  32.9346132
  97.2795677 100.4283237  32.5847507  98.2064533  99.5867825  33.4354472
  87.6430416  86.2429047  24.9121284  87.7615643  87.1926880  24.9215412
  88.0671406  85.9406376  25.7152486  25.8959579  94.1285229  20.2356911
  25.6206751  95.0118065  20.4811978  26.2374878  94.2225742  19.3464530
  24.3976760  17.4300361  14.2468083  23.8687730  16.9873893  14.9105549
  24.9347067  18.0486739  14.7419000  39.3432736  12.8007376  28.1658292
  39.7974205  12.2948277  28.8396549  39.5699430  12.3638976  27.3448396
  15.5137885  90.6812191  18.8001192  15.0222075  89.9852371  19.2362285
  14.9906170  90.8962822  18.0279350  19.6651471  17.7264214  38.5648561
  19.5546615  17.0260608  39.2079115  18.8667107  18.2489586  38.6402583
  37.6947427  83.3340263  39.4947433  37.7701354  82.5859547  38.9023423
  36.7522621  83.4775734  39.5805192  85.0959301  12.5456679  17.1033907
  84.1943645  12.3070860  17.3189890  85.6328583  11.9611168  17.6384103
   6.4521974  53.2001448  19.1777205   6.3441020  53.9925289  19.7037172
   7.3720342  52.9609060  19.2912889  99.7807693  80.2437973  10.1605213
 100.3239918  79.7109890  10.7412505  99.8006725  79.7812462   9.3227381
  32.8716493  92.1857071  43.5023212  33.0859947  93.0674648  43.1976986
  33.6217737  91.6524792  43.2392502  23.2132554  97.3395443  58.3918667
  23.5286379  98.0936241  57.8937435  23.9751291  96.7646027  58.4641075
 109.8442459  69.9793720   4.6569595 110.0517750  70.8507395   4.3194935
 109.5959568  70.1287174   5.5692530   0.5023365  80.8584023  20.9532714
   0.2029585  80.4198170  20.1568770   0.3033263  81.7831421  20.8066869
  29.7168183   0.5355821  53.4397840  28.9449739   0.5789441  52.8753281
  30.4565525   0.6502670  52.8432322  43.8246727  99.6649551  31.9511771
  43.6874151  99.1116524  31.1822486  44.1534901  99.0660667  32.6215816
   8.1190062  50.5489445  66.7308187   7.4820811  51.2621498  66.6872549
   8.4327495  50.4527569  65.8316231 113.0706596  85.9370232  30.7485795
 112.3377705  86.5110588  30.9712291 112.9929447  85.8048820  29.8037338
  89.4170570   9.6165174  62.3795080  89.6779537   9.6319276  63.3003378
  90.1870728   9.9329406  61.9070768  78.9896488  13.7152195  69.8392534
  79.5978069  13.5999596  69.1091251  79.4828415  13.4312296  70.6088924
  86.0238838  12.5200856  27.7770185  86.8260098  13.0358672  27.6946473
  85.6916237  12.7316463  28.6494160  89.7525311   8.5657299  82.6174355
  89.4757366   9.4431412  82.3533154  88.9538002   8.1503248  82.9425526
   2.3264480  82.6247501  11.7883801   2.3549423  82.7577305  10.8408916
   1.4211917  82.8199673  12.0305216  14.1179860  51.1774588  65.3110504
  14.4815147  50.3416777  65.6035471  14.4645107  51.8193817  65.9308004
  95.5046844  63.8898230  80.6845379  95.8078766  64.6897936  80.2551746
  94.8811436  64.1936159  81.3441944  88.8537121  33.7843943  13.7880671
  89.6433067  33.3716202  14.1379189  88.4091282  34.1411304  14.5570409
  74.3344450  20.5988503  65.6335592  73.6822414  20.9868836  66.2169075
  73.8214254  20.0921750  65.0040150   2.8390858  68.3715534   2.1017848
   2.1669503  68.3868790   1.4204401   2.4339706  67.8963041   2.8272176
   0.4670191  64.0623379  44.0474844  -0.4722071  64.1230726  44.2218590
   0.6397486  63.1225824  43.9903975   0.9344713  80.5259323  23.6390233
   0.5299961  80.8578300  22.8374767   0.2623026  79.9708652  24.0344024
   5.5012578  61.7338991  36.7798257   5.1865292  62.0454264  35.9312201
   6.4498150  61.8569517  36.7433619  93.2089424  37.8680563  91.3909912
  93.4140205  37.1983647  92.0434380  92.6303196  37.4271274  90.7688904
  11.8783140  73.9964056  13.7862229  11.8661809  73.4494877  13.0007505
  11.0495090  74.4744444  13.7580466  52.8039360  47.3384285  24.4415760
  52.6081133  47.0248461  25.3244996  52.4846363  46.6445589  23.8646626
  99.7608185  76.4288807  60.5782557  99.3216705  75.5941105  60.4153538
  99.8060513  76.4935684  61.5321970   8.2713133  71.8780994  56.2099934
   9.1498423  72.0196390  55.8573151   8.3909476  71.2186432  56.8933964
 108.3914089  82.2153473  24.0400958 107.9150581  81.3894844  23.9548421
 108.8440800  82.1450996  24.8805618 111.5700245  50.1099157  22.3392987
 111.6332817  49.4484901  23.0283189 111.5431786  49.6063948  21.5256763
 107.8546238  28.4349227  32.6291776 108.3230305  27.6608324  32.9415941
 108.2171345  28.5991096  31.7586279  85.4817009  18.4744656  79.7945786
  84.8957348  18.2642245  79.0674829  85.3266716  17.7805936  80.4354668
  24.1773200  56.4264917  13.9680326  24.8109889  56.5357494  14.6770883
  23.6349487  55.6873751  14.2432952 103.4730244  67.5790691  13.4962356
 103.0391598  66.7258883  13.5047448 102.8417683  68.1646252  13.0780566
   7.2073919  77.5218344   4.4806114   7.5740218  77.6424932   5.3565431
   6.4433348  76.9613457   4.6158868  92.6580620  28.2524562  77.6916695
  92.3245335  27.3613691  77.5870037  92.1056557  28.7838459  77.1183491
  10.6631100  35.6903601  26.5587950  10.9376144  35.3009748  25.7285810
  10.0973570  35.0293899  26.9578862  17.6504874  41.0339069   7.2581220
  17.6934218  40.6272840   8.1235957  18.2394171  40.5080509   6.7169476
 111.4875126  60.7962036  65.0532627 110.6523132  61.2538576  65.1493692
 111.9417000  61.2703896  64.3567705 113.7649155  33.7427235  20.1779103
 113.6274147  34.6317196  20.5050278 113.3829117  33.7486911  19.3002629
  23.7067747  38.0606270  13.3436131  23.0414200  37.3729205  13.3191979
  23.2463026  38.8496447  13.0578721  21.0274029  91.2428474  27.5374341
  20.2916336  91.2791920  28.1486225  20.6232548  91.3060379  26.6720414
 103.7570477  55.8864832  39.4211459 103.6026001  54.9841690  39.7007990
 103.9583015  56.3568497  40.2301455 102.5235462  33.0798149  22.7325630
 101.9066906  32.8683114  22.0318556 102.1137524  32.7331972  23.5251260
  87.0369434  94.0973663  23.3137441  87.9309177  94.0969181  22.9716182
  86.5734673  93.4572887  22.7736306  85.4193211  66.0091686   3.1290153
  84.8279858  66.7589760   3.0631468  86.1928940  66.3527536   3.5759789
  91.9562054  67.9986429  32.3925567  92.5734329  68.0801249  31.6654968
  91.7436409  68.9015913  32.6286268 103.0734539  20.7147241  75.7429218
 103.9528465  20.3392625  75.6990814 103.0429554  21.1547017  76.5924644
  37.3607922  70.0031281  64.2672300  36.6294837  70.0749350  63.6538267
  38.0281925  70.5914831  63.9141703 109.7378063  59.8438263  33.8347626
 110.0692940  60.3661585  34.5651865 110.4630280  59.8174953  33.2105947
  17.0899737  69.7441292  31.4025974  16.6753650  69.7855902  32.2643471
  16.8691814  70.5792189  30.9901500  80.4282093  25.7497597  80.4117584
  80.8680344  25.3681397  79.6520472  80.8850956  25.3765154  81.1655331
   8.8578886  56.5590429  49.5957756   7.9833132  56.5609217  49.2067385
   9.0254807  57.4761391  49.8127460   7.9921877  64.0955591   7.6200336
   7.4637973  64.0585661   6.8227464   7.8351682  63.2552290   8.0506366
 110.6709480  66.3333797  11.3014901 110.2410316  66.2123442  10.4548764
 111.2209129  67.1076918  11.1823070  33.0734348  61.2467480  17.8626513
  32.5015950  61.0315275  17.1258247  33.6873484  60.5139637  17.9113829
   4.5166138  86.8454838  32.0945120   5.4053408  86.9486809  32.4347258
   4.1431570  86.1324310  32.6125050 107.9673386  40.9978056  44.5925426
 107.9775143  40.0895977  44.2904091 108.7427998  41.0739708  45.1485109
  75.3138828   2.9428753  12.2814977  75.7642365   2.7537644  13.1046927
  74.4975567   3.3664420  12.5468981  24.7204995  57.7724361  23.4720302
  24.9504328  58.4426498  22.8284693  24.9352145  56.9443512  23.0426025
  92.7630329  11.9731486  72.9617500  91.8855762  11.6127253  72.8337145
  93.0610943  11.5904629  73.7869453  10.5310166  95.9827995   4.9545273
  10.7631826  95.2441025   4.3918031   9.6391541  96.2119484   4.6931738
  57.4936867 105.8708763  72.2981596  57.7056265 106.6909981  72.7439451
  57.8125715 105.1881027  72.8883839  32.1896935   6.6054165   9.5673674
  32.9021144   6.1560732  10.0220942  31.3950205   6.2946707  10.0011444
  20.2725482  70.5830288  32.3208690  21.2169266  70.7134104  32.2349453
  20.1295447  69.6779823  32.0439792  64.5336771   1.2752809  22.1830535
  65.3362465   1.5692580  22.6139712  64.5939636   0.3200097  22.1904445
   6.0149157  52.4227333   6.3854367   5.7203025  52.1627998   7.2582889
   5.2489746  52.8364754   5.9874636  32.5277185  94.9788666  81.5366173
  32.2481322  94.7317600  82.4180889  32.9184008  94.1823864  81.1771584
   8.7363189  62.0372152  16.7941082   9.1541368  62.7105284  17.3310554
   8.5866058  61.3089037  17.3969138  55.2469778 105.3424835  15.4547477
  55.8466816 105.8463860  14.9045897  55.2292871 105.8163738  16.2862229
  41.0953140  77.0650053  13.4559250  40.4464293  77.4594784  14.0386558
  41.4069939  77.7922678  12.9172468   2.8863096  51.6535187  17.2163033
   3.2418385  50.9072828  17.6989675   2.4401635  52.1781635  17.8810823
   9.7164661  27.5931597  55.7050180   9.6970099  28.0509448  54.8646116
  10.6261563  27.6626587  55.9946156   3.3015627  85.1416302  22.9361558
   2.9382592  85.7221699  23.6048937   4.2263946  85.0579929  23.1683683
  85.6458759   0.7756460  87.1784878  85.3762722   0.5741543  86.2824249
  85.0631809   1.4847779  87.4502087  34.0796185  99.8925591  86.5625286
  33.3851814  99.5469189  87.1233463  34.7930813  99.2601013  86.6473770
 111.6236877  77.5119400  25.2863765 112.2540474  77.6073217  24.5723867
 111.9111919  78.1435156  25.9456801  12.6647162  49.3685484   4.8306137
  13.4829354  49.0335512   4.4638354  12.4194992  50.0892639   4.2503789
  88.3266258  21.1413217  80.6703663  87.8855705  20.5741668  81.3028526
  89.2594910  20.9949350  80.8271408  84.9070644  37.5510120  74.9720192
  84.9874687  38.0751753  75.7688999  84.4687462  38.1295562  74.3480015
  30.4995561  37.5108528   2.8480124  30.2990985  37.1815038   3.7241274
  29.6954131  37.9469967   2.5662971   7.3867375  83.7965298   7.2505218
   7.4455833  83.6341286   6.3090372   6.6131717  83.3069897   7.5301272
  71.4762068  18.7485647  74.6426201  70.6945658  18.4976172  75.1348543
  72.2046041  18.3955169  75.1535320  14.7775555  83.3427048  16.5508294
  14.5067489  82.4787045  16.8613160  15.2027130  83.1727219  15.7102478
  72.4822855   9.6179032  61.8995476  72.3668575   9.3805057  62.8196287
  73.1645489  10.2892113  61.9091749 107.4235916  35.5160856  82.6792717
 106.6875362  35.0515676  82.2809219 107.9172611  35.8641529  81.9367313
  83.2532692  43.1128025  90.9304523  83.6141872  42.9009676  91.7913246
  82.7476311  42.3378658  90.6854343 110.8026695   3.1511751  25.4020905
 111.5712833   3.0799326  25.9681225 111.1341095   3.5491011  24.5970845
  44.0919638  71.3475323  24.9967766  43.2965469  71.5454721  24.5024419
  44.1919899  72.0873594  25.5958438 105.9974003  60.6062126  42.1513987
 106.4097595  59.7776461  42.3956680 105.4347706  60.8221388  42.8950739
  34.0561891  57.3203659  32.4011016  33.9243436  58.2634068  32.4986792
  34.2553377  57.0135736  33.2856631  19.1968656 100.5751610   8.2577121
  19.5989728  99.7161388   8.3866930  18.9540863 100.8606529   9.1384989
  20.8807349  94.4165325  32.5046015  20.9631610  95.3701115  32.5158572
  20.5090714  94.1981506  33.3592391   9.1779739  78.9661169  10.5613923
   8.2357794  79.0967131  10.4544079   9.2809415  78.0177021  10.6397748
  91.0581589  37.9064608  83.4961987  90.6666756  38.1927586  82.6709747
  91.6495132  37.1961999  83.2470703  13.6745262  91.8427086  34.6578979
  13.6488450  92.6144791  35.2235413  13.1389713  92.0821762  33.9015460
 113.2876396  74.1020632  15.7430041 113.7601662  74.9260187  15.8615434
 113.6929226  73.5014153  16.3684630  55.9001747  24.3892626  93.0490924
  56.3570228  24.5327715  92.2202817  55.3476062  25.1636223  93.1552062
  38.8441968  28.0224633  13.2626903  38.7583971  27.6698780  14.1484416
  38.2026482  27.5337124  12.7471602  13.4354925  70.0437880  56.8019962
  12.5603294  69.7026539  56.6177416  13.3305204  70.9950399  56.7836809
  34.5103765 102.9322243  20.2394199  34.2142153 103.6982155  19.7477078
  35.2921319 103.2326984  20.7028913  89.3642807  60.4357100  18.4586191
  89.0027142  60.0658321  17.6532054  90.2007389  59.9850512  18.5747290
  11.8983901  80.4911327  33.8802361  11.3091493  80.2969837  34.6091628
  12.0884705  81.4251423  33.9681363 106.0981655  59.4723654  52.2961378
 106.6361046  60.2328873  52.0759964 106.2764263  59.3131256  53.2230139
  43.8181829  38.1150794  90.4541397  43.2591057  38.1635880  91.2295818
  44.0262556  37.1848679  90.3666973  89.3846893  13.3001876  92.6996231
  89.9777508  13.5329485  91.9852448  88.6205673  13.8617313  92.5691509
  35.2965355  -0.1968335   1.9732136  35.0782275   0.5785988   2.4902035
  36.1824560  -0.0289194   1.6519997  25.0458932  94.6778679  29.2592883
  25.6205130  94.4622898  28.5247326  24.1612387  94.6009827  28.9019251
  16.0212255  74.0246725  28.3468628  16.2374413  74.6678066  29.0220404
  16.5162265  73.2432795  28.5930943  18.8580668  83.8744450   3.9218965
  18.7452865  84.6982002   3.4476238  19.0802026  83.2362366   3.2439739
  23.9984369 106.8828392  17.9904568  24.7188950 107.4865437  17.8095591
  23.9838028 106.2943745  17.2356570  90.0417995  64.1969919  18.0967319
  89.9137306  63.6028957  18.8362479  89.1725826  64.5608425  17.9284883
  19.6374357  63.5932350  35.1845837  20.1212740  64.0241385  34.4799876
  20.3124928  63.1680155  35.7134676  13.4975052  94.8386002  28.1849980
  12.7290905  95.2370262  27.7763104  13.4709489  93.9239120  27.9041743
 106.5078163  91.5838337   2.3491374 106.6454315  91.7915440   3.2733399
 105.8748436  92.2360134   2.0487452  82.8269863  12.0259511  91.7372322
  82.3736954  12.4957776  91.0372162  82.2072315  12.0269394  92.4667072
  51.8543196  46.6126919  79.2568970  50.9292364  46.6065216  79.5026875
  51.8970585  47.1966362  78.4996557  11.0075164  45.4070377  71.9371223
  11.4110112  45.1634264  71.1040068  10.0932455  45.5858707  71.7172098
  54.2583227   0.7597384  20.5110168  54.8226833   0.4890355  19.7868276
  54.7537374   1.4467768  20.9568548  63.3024549  28.4515095  92.3372650
  63.2057810  28.7917876  93.2266998  64.1737700  28.7387943  92.0643044
  12.1942663  67.4219894  26.2603974  11.2421048  67.5097418  26.3042188
  12.4003720  67.5104666  25.3298450  11.9435656  44.7201729  10.6742585
  12.3067963  45.1419115   9.8955226  12.0462322  43.7829590  10.5089796
  10.8620334  85.4637814  35.2195334  11.4507043  85.9598160  35.7884336
  11.3608277  85.3348923  34.4127965  38.8140559  14.7919631  79.2965746
  38.8027596  14.3461156  78.4496260  39.2900944  14.1958392  79.8747253
  89.0926075  80.1558685  16.8347120  88.3135700  79.6417189  16.6226220
  88.7502098  81.0033894  17.1187878  63.8822985   5.6770539  30.5254841
  63.2379961   6.3615280  30.3449273  63.4060764   5.0316322  31.0478592
  97.9678535  30.2948904  64.1378021  97.7390385  31.0985208  63.6708403
  97.1326923  29.8439884  64.2620039   5.0439018  78.8936186  65.7952690
   5.1728338  78.3150768  66.5468645   4.6339861  78.3376646  65.1326084
  40.5551386  52.2730684  27.2926307  39.9899435  51.8451118  27.9357767
  40.5406904  53.1979370  27.5388789  23.4791374  81.0236835  38.4382749
  22.6193094  81.1779594  38.0469608  23.7628126  81.8863297  38.7409306
 109.6973610  52.9782391  40.8988905 110.4448605  53.5742378  40.8513975
 109.6909332  52.5340652  40.0510120  11.9618464  97.4577999  18.0649292
  11.1525822  97.1963501  18.5042107  12.0919228  96.7940521  17.3876178
   3.8509753  46.8828106  85.0270176   3.1946373  46.2092304  85.2051926
   4.0118712  47.2913790  85.8775520  38.0640864  92.6001263  41.6025019
  38.6544132  92.1852684  40.9735060  37.8349376  93.4376049  41.1995649
 114.1306438  85.3293228  49.8237705 113.4632794  85.6392574  50.4359722
 113.6915212  85.3240776  48.9732552  14.3093216 101.2654495  44.6739626
  14.0501440 101.3711262  43.7585974  15.2113652 100.9479332  44.6323586
 103.9389229 102.5218201  60.7532835 103.6028862 102.2927856  59.8867655
 104.1620731 101.6814041  61.1534548   7.1944350 104.1077137  53.7756157
   7.2426218 103.8457870  54.6950245   8.0561477 103.8913155  53.4194517
  96.7934418  15.0824320  78.5479259  96.6105843  15.7165003  79.2412901
  96.1927986  15.3200769  77.8415442  28.2224417  82.9426479  51.7151117
  27.3224616  82.8158092  51.4148092  28.5094786  83.7451267  51.2793827
   1.8319014  93.9783764  23.7343216   1.0965198  93.5671425  23.2800794
   1.4426421  94.7198105  24.1979861  94.7770214  36.2291455  79.0032673
  94.7723579  35.6714129  78.2253599  95.0519657  35.6483650  79.7127295
  41.9581079   7.1689850  13.5331488  41.0258007   6.9560248  13.5742235
  42.0614862   7.9084760  14.1320622  14.2088807  74.8769188   2.6463804
  14.0698731  74.6810865   1.7197962  13.3552933  74.7283602   3.0532601
 100.4681587  70.0753975   8.7462902  99.5893097  70.4383850   8.6363274
 100.8279324  70.5431890   9.4999224  12.4457419  76.4666748  32.3476267
  13.0895388  76.9861889  31.8661070  12.9496002  76.0476494  33.0453205
  60.9257364  14.4936585  85.0821304  61.7544842  14.7144735  85.5071640
  61.0418701  13.5911250  84.7851849 108.7425327  72.9798651  48.5692167
 108.3135033  72.2007275  48.2155085 109.4152451  73.1967258  47.9237270
  24.5068908  88.1543636  83.5665226  24.6747470  87.2134113  83.5148048
  25.2735233  88.5571861  83.1587982 106.7187977  62.1438932  20.6407666
 106.7712879  61.8584156  19.7286379 106.5425873  63.0832529  20.5879712
 102.5804520  83.9328480  12.4103773 101.8758774  84.1438389  13.0229902
 103.3241177  83.7071419  12.9691720  39.7142982  63.7229013  53.8713646
  40.6612921  63.7197065  54.0107489  39.3630314  64.1986609  54.6240234
 111.7411041  68.8130808  11.3175583 111.4832783  69.7344971  11.3449836
 112.6981163  68.8319445  11.3211095 109.3028164  82.3507500   9.4211179
 109.7074127  81.8173790   8.7369752 109.8049736  82.1488380  10.2106130
 109.8489189  84.0483761  22.4589920 110.4755783  83.5962296  21.8941092
 109.4003201  83.3458138  22.9295349   7.1139181  75.6405783  11.7046535
   7.4714833  75.4759836  12.5771713   6.4791161  74.9370527  11.5693283
 113.2100582  41.5018082  46.8826199 112.3626232  41.1715984  46.5842152
 113.0091286  41.9904613  47.6807880  37.4610996  53.8935614   3.2063028
  36.7366791  54.4972134   3.3707830  37.3877025  53.2369661   3.8989258
  20.6105065  87.2234344  14.1204572  20.5231404  87.4578571  15.0443852
  19.8884332  86.6164112  13.9580595  15.8416724 104.2523098  42.5153112
  15.3978801 104.7684574  41.8423510  15.3658056 103.4219646  42.5329447
  89.1543770  90.0685596  21.8437338  89.6324730  89.5019531  22.4492121
  89.3521976  89.7138691  20.9769630  46.7418242  72.7203798  27.9065108
  47.1375847  73.5905695  27.9552460  47.4394703  72.1585274  27.5690961
  50.5134821   8.4900588  17.0902812  49.7448730   8.8337797  17.5456119
  50.2345943   7.6356465  16.7609894   2.9071110  78.8964033  22.4838591
   2.3373485  79.6530485  22.6220465   2.6713270  78.2879591  23.1841660
 105.6069088  19.8042166  74.9306202 106.5249634  19.7508037  75.1962137
 105.5983734  20.4537177  74.2275476  12.8881145  50.9721422   6.9683027
  12.4735928  51.6790676   6.4736682  12.9362547  50.2432489   6.3497329
 107.4546051  90.7075405  28.0238938 107.5451088  91.4902115  28.5674548
 107.5785160  91.0221863  27.1284199  24.4970679  28.5784864  72.7436686
  24.6489096  27.9524541  72.0356750  25.1632071  29.2534375  72.6135397
  19.5077357   0.1836083   6.1106879  18.7091479   0.7006905   6.2160945
  19.2503581  -0.7063415   6.3514769   0.2339887   7.1826249  83.1894207
   1.0650682   6.7292947  83.0478954  -0.2430868   6.6225624  83.8017559
  14.6665680  43.5488415   4.5667455  15.3800488  43.0091333   4.2263186
  13.9228916  43.3491564   3.9981472  20.2154541  64.7541857  22.0374465
  21.0291886  64.3810701  21.6985464  19.8125005  65.1780796  21.2797070
  33.3241892  92.4705315  34.9211025  33.8282681  92.0304585  35.6055498
  32.8146625  93.1331921  35.3874660  34.2049646  47.5571251  63.0209446
  33.4435606  47.2704506  63.5252428  34.0955997  48.5045862  62.9398060
  24.1940403  62.2159815   1.8527299  24.8991156  62.6532841   1.3753724
  23.8380265  62.8933907   2.4277148  11.3974977  63.9219236  15.7083094
  11.7500281  63.2278538  15.1513338  11.9758201  64.6690798  15.5549073
  45.6555510  95.2824974  17.9524660  45.1727915  95.9227943  18.4751415
  45.0431919  94.5556545  17.8386593 106.0584831  81.1657333   4.0413240
 105.1825809  81.5067005   4.2223448 106.6509724  81.8075657   4.4327864
  96.5717697  78.0373812  91.7773533  96.2132359  78.7538290  91.2535381
  96.8956470  78.4607458  92.5724030  38.4168601  56.8646765  12.4052250
  38.2164335  56.6037560  13.3041036  39.0631986  56.2240982  12.1083486
  34.8222303  54.2066288  43.8013124  35.6541538  53.9544964  43.4006119
  34.7054696  55.1238966  43.5538769  14.2229903  87.9277992  17.5447500
  13.8203645  87.0594406  17.5356865  13.6763299  88.4390545  18.1414163
  97.5709057  76.8331623  16.6990328  97.7398014  77.6351404  16.2045228
  97.7861977  76.1265707  16.0902548   6.5223891 106.1662388  17.4895656
   7.3797268 106.0350990  17.0845890   5.9249425 106.2875080  16.7516077
  18.2664263  83.7138271  27.4755406  18.4502006  83.4609127  26.5708351
  17.4836433  84.2615795  27.4168158  54.1539097  10.9269249  90.0826550
  53.9634800  11.6315758  90.7018757  55.0433302  11.1086667  89.7791290
   5.3645682  75.8681488  23.2288766   6.1533540  76.3787413  23.4114790
   5.0168216  75.6473541  24.0929103  32.7314138  46.5673590  20.2103782
  31.8142843  46.3023615  20.1405311  32.7021170  47.5232649  20.2506924
  12.1089435  86.4074707  56.5292120  11.1597276  86.5256119  56.4936876
  12.3397779  86.0622597  55.6667900  23.8239670  58.9377737  31.6989207
  23.9715290  58.2672548  31.0319424  24.6836376  59.3374491  31.8310499
  14.6205699  88.8587666  20.6189251  13.7473190  88.4954357  20.7660866
  15.2006626  88.3088112  21.1454940  28.1079817  70.2052689   1.6031048
  27.2362947  70.3779173   1.9588917  28.1135225  69.2640495   1.4290285
  24.2176700  65.7304192   2.6122290  23.6761284  65.1035786   3.0918458
  24.8702478  65.1908541   2.1658622  54.2791510  90.2846241  12.2542977
  54.4348955  89.3524265  12.4059081  53.3269215  90.3766537  12.2862267
  18.4839439  56.3189077  58.5842943  19.2149675  56.9311142  58.6681843
  18.8345599  55.4834604  58.8930464 112.1330643  38.8236761  51.4022398
 112.2085762  39.1154385  50.4937267 112.0643425  37.8707933  51.3428640
  81.0712147  25.8985233   2.7204317  81.0569954  25.6496763   3.6446095
  80.3443718  25.4129171   2.3304218  38.5775924  97.5967216  18.9924717
  37.8725910  97.4421024  19.6212006  39.3761277  97.3632431  19.4658232
  42.2325277 102.7026176   6.3330823  43.1368923 102.7856064   6.0306382
  41.8838406 103.5931396   6.2928259   7.0771408  92.6170063  24.8119187
   7.7464300  93.0294132  25.3580022   6.4190686  92.3059559  25.4335451
 108.9984894  49.5004511  82.3109627 108.8200378  50.1653147  82.9760456
 109.8135185  49.0880871  82.5971699  60.3669977   7.3236614  32.1751404
  60.7353544   8.1960905  32.0358086  60.5230570   7.1430272  33.1020975
  13.4132254  97.9033470  22.3409986  14.3061197  97.8493214  22.0003319
  13.1018865  96.9981956  22.3415089  34.5352364  85.9967518  75.0983334
  34.0589261  85.9702492  74.2684793  34.0780497  86.6596222  75.6158447
  85.6556129  97.7100849  12.3499477  86.2645149  97.0267868  12.0696616
  85.0548363  97.8129768  11.6119015  14.2797804 106.3491726  22.1201396
  14.0760064 105.4422951  21.8915105  14.6665823 106.7155457  21.3249087
  52.6229095  58.4412527  19.0338552  52.1316004  59.2464352  19.1967404
  52.4577188  58.2421589  18.1122780  48.5135365  56.8003178  15.3069353
  49.2239761  57.3519564  15.6343520  47.7194500  57.1907568  15.6719255
  46.1747599   5.1120555  38.8385987  46.4666224   4.9098635  39.7275114
  46.1836433   6.0682327  38.7952638  44.3285990 106.5241241  23.3838844
  43.5476303 106.7261124  23.8991690  44.7072077 105.7570839  23.8134551
  62.1003437 103.3595181  67.8114414  62.1269894 104.3101120  67.9205465
  62.6890278 103.1861591  67.0768499  38.1611681  81.2440586  18.6583614
  37.5358677  80.5206776  18.7025559  37.7746177  81.9284916  19.2045808
  92.9340363  14.0740860  85.6511116  93.6509514  13.8530493  85.0566387
  93.3675861  14.3183839  86.4687824  50.3649044   2.4085863  38.3555269
  50.2132607   3.2600138  37.9452729  50.9970140   1.9754860  37.7818584
  69.6781826  36.7706728  11.9484460  68.8459492  36.5906644  12.3857260
  69.4582224  36.7992663  11.0172999  26.7531204  75.8589125  19.0210521
  26.6001129  74.9360132  19.2237186  25.9952331  76.1178637  18.4968555
  56.2284708  70.8372974  23.0928421  55.4581308  70.6486988  22.5568986
  56.1995506  70.1841879  23.7920165 106.6978073  59.1914797  55.1143217
 107.5992775  58.8725424  55.1575565 106.5407562  59.5828819  55.9736061
  24.8508978  73.3937120  29.3385768  25.4764986  72.7794170  29.7226310
  24.0174389  72.9230595  29.3464637  25.2446938  82.9175377  53.5833597
  25.6631517  82.2708797  53.0150604  25.9622192  83.2792950  54.1034746
 109.8583221 101.0727119  22.9270387 110.5902767 101.5078735  23.3641934
 109.2023277 101.7608738  22.8159714  34.1081834  77.3195124  57.9000950
  33.4340882  77.7094889  58.4566355  33.6864829  76.5508175  57.5160217
  29.6146369   6.7386371  26.6592789  29.7717023   7.0547229  25.7695317
  28.6650419   6.6296875  26.7106128  34.9251056  10.9574413   8.0954581
  34.3421888  10.8739960   7.3408204  35.6934643  11.4156938   7.7550739
  17.4199474  75.1409292  43.5583115  16.9630599  75.6297112  44.2428446
  17.2512293  75.6364822  42.7569437   0.3332186  39.3189716  68.8570642
  -0.1926661  39.1173291  69.6310234   1.2155390  39.0251565  69.0838099
   9.7497290  85.0736237  52.3701096  10.7040668  85.0858879  52.4430466
   9.5784247  85.2315903  51.4417076  94.8749065  75.3678799  32.2548842
  95.2022743  74.4803381  32.1088433  93.9462280  75.2507067  32.4550366
  27.1955562  99.6431351  31.8795204  27.6717806  99.1409016  32.5407314
  27.7662826  99.6292686  31.1112046   6.3217753  83.8562107  43.8041782
   5.8611679  83.7319946  42.9743338   5.6827468  83.6081600  44.4722748
  44.1885900  92.1285629  20.7502437  43.3938169  91.6408348  20.9663343
  44.7321701  91.5014935  20.2732396  51.6515827  41.4032459  29.8275924
  52.3698759  41.4565897  30.4580235  50.8994007  41.1160421  30.3452492
  83.2771492  89.6932125  33.4292650  82.5030708  89.3639088  32.9725528
  83.9217949  88.9906502  33.3452249  96.5108967  36.5976143  59.1915941
  95.6544685  36.6341090  58.7656450  96.6750908  37.4964929  59.4767094
  35.6748104  93.8822079   4.7184905  36.4923477  93.4147644   4.8898387
  35.4679918  94.3146610   5.5470133 101.0795212  54.6825504  91.7319393
 102.0090008  54.5520353  91.9197655 101.0181522  54.6294737  90.7781792
  29.3815970  91.2495422  28.3403993  29.3196297  92.1728325  28.5852003
  30.1096201  90.9117794  28.8620591 104.8869705  34.2836237  92.2537613
 105.6488895  34.6446776  92.7069092 104.6970272  34.9175072  91.5621376
   1.5910730 101.9713211  30.7275796   1.3222794 101.3773537  31.4284229
   2.4531823 102.2868824  30.9985423  30.5219316  17.3908222  36.8139935
  30.8822179  16.5045154  36.7842102  29.7622633  17.3212564  37.3921752
  14.7628534  98.3880520  31.9973445  15.1315010  99.1716671  31.5895653
  13.9858997  98.7018013  32.4600911  38.5804439 103.2618237   9.5491594
  38.6925125 104.0677643   9.0450406  37.6380730 103.2077885   9.7080570
  66.5804386  16.5846145  16.8467689  65.8047152  16.1245000  17.1673596
  66.3224316  17.5062370  16.8300831  19.2704666  73.3029795   1.6846643
  18.4673226  73.1463909   1.1880029  19.9308085  73.4934187   1.0183969
  78.7099266  11.4080215  42.5339174  79.0805721  10.6245708  42.1276426
  79.4559431  11.9981611  42.6408052  30.0756788  59.6349382   5.6309569
  29.1190028  59.6032810   5.6304860  30.2874470  60.4711056   6.0459387
 104.7850323  91.6399288  14.4271493 105.6737518  91.3896656  14.6796978
 104.9064541  92.3407269  13.7865448  74.8774433   4.3541157  14.9831247
  74.0300417   4.6598798  15.3066289  75.4262161   5.1382875  14.9707520
  15.8325648  94.2446709  39.1701460  14.9998176  94.5343685  38.7975359
  16.4635587  94.9081326  38.8910460  12.4747562  70.2596045   6.7572260
  12.4921906  69.8016071   5.9168881  12.7635074  69.6048069   7.3929107
  23.0643511  89.9674797  32.6403904  22.1377516  89.7336674  32.5858569
  23.0879474  90.7152081  33.2375383  65.4863691  29.4475126  63.0927324
  66.0060072  29.2415404  63.8697672  65.3047562  30.3843474  63.1674671
  15.2356803  71.8175602  16.4115012  15.7832897  71.3518095  17.0435035
  14.9331474  71.1374712  15.8096874  62.6848555  11.1569011  42.0763063
  63.2140589  10.4133761  42.3650026  62.1557903  10.8098078  41.3580799
  25.7163930  88.4920979  31.6441631  25.2558708  89.3016338  31.4232540
  26.2304473  88.7132454  32.4207425  71.4361811   8.4155899   2.5966844
  71.8200588   9.1827470   3.0213466  72.1391344   7.7659070   2.5950348
  21.0344028  86.8059921   2.0182493  21.6760659  86.2479782   2.4577060
  21.5609956  87.4559212   1.5529262  84.9448586   3.4335193   7.9166299
  85.7605076   3.0837256   7.5580424  85.0302982   4.3824518   7.8246593
  15.5093157  73.7498283  34.3997407  16.4041710  73.8534594  34.7233534
  14.9610198  73.8372135  35.1794624  27.6675105 103.2068634  14.3778920
  27.6687741 103.2853699  15.3318655  26.8981671 102.6718807  14.1826153
  49.9739838  11.5982985  65.7524729  49.9212027  11.2401032  64.8663902
  50.3401995  12.4748421  65.6350565   3.0335662  97.0255756  31.8181109
   2.6976946  97.4779415  32.5919223   2.2522897  96.6879940  31.3800788
  34.0454197  80.0616550  48.6401939  33.3285022  80.5465984  48.2314205
  34.2737198  80.5779839  49.4131851   9.6728337  90.8417892  13.8060093
   9.1466254  91.5508461  13.4364498   9.0305394  90.2032852  14.1158628
  10.7742929  46.4715672  27.1127319  11.0577881  45.5590963  27.1698213
   9.9014670  46.4272165  26.7222977  34.0362501  91.7117691   3.8364854
  34.7699785  91.3565159   3.3348128  34.2770457  92.6236534   3.9999318
 100.1498127  99.6276569  34.3661737 100.0317478  99.0632248  35.1301813
 101.0748577  99.8725033  34.3899322  24.4999433  61.6766214  46.5647840
  23.5472727  61.6045475  46.5060139  24.6935058  62.5584173  46.2466526
  77.3986244  40.9604359  79.4908667  76.8099403  41.6959047  79.3212557
  77.4114752  40.4695225  78.6692381  16.3937879  60.0547791   2.6142249
  15.5041015  59.7790956   2.3935677  16.3581574  61.0112381   2.6019102
   2.5771582  60.3414774   9.8605102   3.2075042  61.0516310   9.9812382
   1.7280678  60.7397747  10.0519216  15.9343147  63.1743336  77.5974703
  15.1484752  62.8040314  77.1955204  15.6033349  63.8327408  78.2083654
  35.4723525 105.7054806   5.2848029  34.8035789 105.2292156   4.7927195
  35.0592399 106.5407181   5.5037618  45.0588465  34.3026185  51.1280823
  44.9333000  33.5227919  50.5873966  45.7216787  34.0455151  51.7690086
 100.4151630  76.7171001   8.3897936 100.3410339  77.6547909   8.2123828
 101.3541698  76.5377331   8.3416790  46.0534048 100.4437637  59.3531322
  45.4467678 100.8440018  58.7302065  46.7655420 101.0780811  59.4352150
  23.9421272  74.1368294  58.3423567  24.1452336  74.6714163  57.5747681
  23.0442882  74.3773508  58.5709715  16.4105320  72.6539707  11.1636090
  16.0283923  71.7850637  11.2869215  15.8799446  73.0533361  10.4742527
   5.4990292  94.2715263  22.8097367   5.8963591  93.7741375  23.5245585
   4.8865134  93.6586380  22.4030161  87.0234966   5.9859502   2.3072024
  86.8685150   5.7552791   3.2231736  86.5057850   6.7791218   2.1690588
  62.1008110  22.6830411  15.1767612  62.1370459  23.2980800  14.4441998
  62.8294468  22.0820975  15.0212228  94.3756866  47.1231461  87.3072720
  94.6700382  47.2918701  86.4122200  93.5486317  47.5993299  87.3811817
  31.9335914 106.8620682  39.8485661  32.5334859 106.5888882  40.5426359
  32.4962831 107.2788334  39.1959453  10.5804968  71.4320564  22.2263932
   9.9236900  70.8291388  22.5747132  11.2830889  70.8641529  21.9100380
  17.9167449  73.1159973  13.2419693  18.7041700  73.4382296  12.8033805
  17.3008275  72.9411268  12.5304234  62.3518276   7.8207958  21.8015718
  62.2458792   6.9916064  22.2678900  61.9649076   8.4743488  22.3841500
   4.8120540  95.8237171  20.3518176   5.2525258  96.6711330  20.2877259
   4.7805831  95.6405544  21.2908030  23.0128312  68.8813591  15.0753582
  23.1627488  68.4186029  14.2509723  22.0665932  69.0233898  15.1016545
  11.4404762  52.8469944   9.3130702  11.4704561  52.1037245   8.7106723
  11.4896190  52.4519300  10.1835513  45.2953577  89.0951920  36.5251422
  44.4036961  88.7560368  36.6034937  45.7896662  88.6270428  37.1979880
 112.7893543  40.8915377  86.9614697 112.8170490  39.9383235  87.0442200
 113.5226154  41.1995935  87.4940777  37.9967833  56.4155102  46.0378981
  37.7887297  57.2711563  45.6626463  38.1478643  56.5915775  46.9665575
  94.2847347  49.5139694  82.3337364  94.4519711  49.2498875  81.4290142
  93.4180260  49.1586113  82.5306416  34.4823694  79.8539305  40.1657820
  35.1069808  79.8398685  39.4405961  35.0108218  80.0744820  40.9328079
  89.4022465  20.1625013   0.8184238  89.5201206  21.1119175   0.7876319
  89.4775677  19.8820925  -0.0936773  39.0733337  70.0543165  50.2296352
  38.2774425  70.5737591  50.1157713  38.7790465  69.1463137  50.1578283
  81.6249180  49.7885656  84.0195560  81.6343403  50.7449532  83.9812660
  80.9037685  49.5329237  83.4443951 109.1901398  67.4416399   3.1054416
 109.0545464  68.0380964   3.8417074 108.3152962  67.3091078   2.7403077
  27.5669837   5.7923353  20.4734683  27.1343160   4.9497026  20.6113100
  28.2342005   5.8338827  21.1585402  73.3835426  46.7602114  93.2146683
  73.4127727  46.1044077  92.5180330  73.3059707  47.5956778  92.7540112
  85.4970551  81.2091446  10.4649913  86.0861015  81.8102551  10.9209716
  85.8474731  81.1589909   9.5756489  88.7112808  33.1851220  74.0770054
  88.7671661  32.8948307  74.9874115  88.7430000  34.1404438  74.1278505
  46.5008068 106.4058876  31.2700820  47.0311785 105.7262993  30.8540344
  46.6664839 107.1915436  30.7489967  81.8237019  16.0559940  31.3884068
  81.4803600  16.7978597  31.8863893  82.4956036  16.4372826  30.8232522
  11.2860548  63.9023781  12.2952592  10.3893101  63.7340164  12.0058882
  11.6060984  64.5810032  11.7008936  31.5149069 100.4861546  27.5939798
  31.2136054 100.7491493  28.4636259  30.9421706  99.7583866  27.3520136
  39.6400738  25.0943041  78.1583738  39.4576168  25.0270438  77.2211361
  40.1663399  25.8893061  78.2434845  13.3976424  85.4892540  23.2325935
  13.0366409  86.1056423  23.8697600  14.2738509  85.8253479  23.0440879
  38.3617949  95.8256626  16.8285120  38.6672425  96.3994884  17.5311255
  37.6621389  96.3205910  16.4021754   5.1450670  42.2374773  89.2753410
   4.3643412  42.4815893  89.7724342   5.5814499  41.5830994  89.8208523
  85.8174133  39.1054797  60.6140471  85.4315948  38.2393432  60.7451296
  85.9187412  39.1814518  59.6652651 109.7887421  81.8183231  26.3799095
 109.9651337  82.6835346  26.7494130 109.3275452  81.3501549  27.0758581
  97.4865627 105.3489685  51.6269541  96.8301582 104.6732521  51.4573050
  98.0121231 104.9973011  52.3455286  24.0641975  92.1379662  23.2438087
  24.0822434  92.0683002  24.1982985  24.3250990  93.0413246  23.0646229
 102.4208832 103.3032131  14.4687152 101.7178535 103.7656021  14.9249876
 102.5418282 102.4967289  14.9699008  33.8696837  78.6238623  44.6040392
  33.8737893  79.5775461  44.5221996  34.7349381  78.4096766  44.9528885
  69.2136288   9.1043115  13.9061713  68.4870815   8.6395264  13.4910369
  68.7943983   9.6889961  14.5375347  81.1285782  15.1746225  78.3768940
  81.6470814  14.3953562  78.5772181  81.3220215  15.7812631  79.0915966
  85.3125572  24.8618627  44.7268867  85.0892735  24.4334698  43.9005375
  86.2271690  25.1237655  44.6214151  23.0944014  90.2711964   8.8599163
  23.0201364  90.2746773   7.9056078  22.4196672  90.8827209   9.1548908
  28.0270028  92.3178482  14.4982219  27.5863099  92.3750782  15.3460121
  27.3781586  91.9205952  13.9173388  32.2352743  14.1775954  19.5089138
  33.0965614  13.8485527  19.7661042  32.4218941  14.9729717  19.0101337
  87.0513725  55.7654095  93.1426144  86.7919445  56.4226389  92.4968719
  87.8186607  55.3416109  92.7580547  14.3135262  77.2037935  30.4701567
  15.0071096  76.5909624  30.2259946  13.8949871  77.4346209  29.6408367
  53.3417463  35.3326249  31.5613008  53.0059004  34.5170498  31.9331574
  54.1492081  35.0777006  31.1149287  55.5440235   9.4749081  11.8079889
  54.8555183   8.8834345  11.5040982  56.2048006   8.8971519  12.1898258
 105.1296997  51.0851049  91.2036610 104.6128559  50.4041958  90.7730007
 105.0638008  51.8409395  90.6200409  67.5800705  93.9465427  16.7608893
  68.4987450  94.1932011  16.6539872  67.6100111  93.0482197  17.0900548
 106.1826229  29.3744898  34.5612931 105.9827614  30.2815342  34.3298650
 106.6637897  29.0351987  33.8065839  89.4127274  77.7176952  42.1834898
  89.2347240  77.8659105  43.1122398  90.3048515  78.0403900  42.0561314
 100.6020260 101.9730949  81.6616535 100.0828075 102.3140144  80.9333515
 100.0504398 102.1070671  82.4323940  50.9217501  21.3157415  44.4383383
  49.9788952  21.1933708  44.3275070  51.2961149  20.4493785  44.2786551
  51.6705990 105.6887913  29.2924571  51.5689993 106.2185764  28.5017371
  51.5321016 106.3041210  30.0124669  48.2238102  16.6999567  56.0972643
  48.6222839  17.4845660  56.4738798  47.8823328  16.2192488  56.8512821
  25.6889486  46.1811686  88.3289337  26.4230680  45.5683279  88.2874203
  25.6425977  46.5592241  87.4507809   6.3676697  70.4044724  69.2630148
   5.5626237  69.8871517  69.2856693   6.2454957  71.0055876  68.5281944
  22.3899579  62.7053547  90.6878090  23.1402636  62.1244717  90.5619240
  22.2046423  63.0499792  89.8142338  73.3098269  19.2859232  19.9508274
  73.9488125  19.8417819  19.5047915  72.4882174  19.4451785  19.4862568
   4.0056786  52.1765232  89.6458054   3.5598484  51.3777590  89.3639469
   3.3255830  52.6888227  90.0831318  87.3263168   3.9473450  14.4291854
  86.7409134   3.6871755  15.1404142  87.0709038   4.8471308  14.2257595
 109.6123028  73.7663174  75.1059532 108.9763546  74.4807673  75.1427650
 110.2142715  73.9440155  75.8286476  12.3174191  98.3142281  24.7528863
  12.8516006  98.2172966  23.9645410  12.8532028  98.8460922  25.3413486
  67.7600718  17.8812385  47.1607399  68.0702591  16.9764566  47.1235085
  68.5075712  18.4029126  46.8686152  57.2671843  48.7604666  15.0189149
  58.1973791  48.9784718  14.9602139  56.8460464  49.5775890  15.2857137
  22.0276308 105.9286308  14.5842934  21.4836979 105.1419830  14.6236730
  22.8864098 105.6418133  14.8948884  82.7860928  52.5233889  90.2141762
  82.4553490  53.4211397  90.1844978  82.7441216  52.2225428  89.3064594
  74.9406338  75.5891466  49.0448761  74.9769926  74.6346855  48.9823103
  75.6944084  75.8225441  49.5867062  75.1159573   6.4684319  17.3694789
  75.2993822   6.6583836  16.4494216  75.6581640   7.0900565  17.8550959
  14.1709876  24.5182514  91.3494682  14.9056733  24.6734047  91.9430923
  13.4071338  24.4613194  91.9235039  12.6645660  96.8457508  30.3151989
  13.0209994  96.2831306  29.6277118  13.4231436  97.0809174  30.8495116
  59.8576021  10.4238427  15.9209967  59.4228935  10.3338242  16.7690289
  60.6827068  10.8661139  16.1205566  57.9532337  22.7878356  35.6917214
  57.2927666  22.3766923  35.1340628  58.6290741  22.1180916  35.7961750
  24.3186712 102.5510502  40.3709364  24.7714615 102.9793262  39.6444440
  23.4119296 102.4718285  40.0746727  40.5236864 104.6185493  38.5709739
  40.2327204 105.2134609  39.2620945  39.7555685 104.0806580  38.3788776
  62.0725918   5.9358424  14.2474043  61.5892124   6.5721297  14.7743905
  61.8516970   5.0881606  14.6332455  74.4735813  17.5705314  16.7958176
  74.7963428  16.8644154  16.2359452  74.7133303  18.3726931  16.3318253
  73.6871338   2.3827492  46.3238192  73.5340595   3.3269492  46.2879467
  74.6385002   2.2964823  46.3845778  72.0702744  34.3063116  33.5431385
  73.0081272  34.4244790  33.3924937  71.8968391  34.7798467  34.3567228
   5.5738789  44.1626692  77.1431923   4.6593517  44.1299582  76.8624735
   5.6673515  45.0215435  77.5552893 109.5720291  23.3846736  12.8363812
 108.7077808  23.3021379  12.4332726 109.9513531  22.5082564  12.7712989
  65.1200771  95.0327206   4.7889477  65.3608036  95.8571720   4.3663678
  64.1739368  94.9651146   4.6605918  72.9699659  71.2667179  84.4413376
  73.5629511  71.1034632  85.1747894  72.2233582  70.6902361  84.6040630
   1.5146236  82.0260334   3.1158677   0.7667136  81.5119362   2.8116208
   2.2369206  81.7571068   2.5482434  39.9695706  88.3061123  47.7010679
  39.4149256  87.6250362  48.0814981  40.4758692  88.6432457  48.4401464
  52.4232388   4.9701461  52.9308701  53.3017254   5.3501892  52.9233074
  52.4515915   4.3152320  53.6283779  22.9343891  91.1746025   6.1092615
  23.6337447  91.8276596   6.0835999  22.9781556  90.7431412   5.2559400
  43.9384174  36.9526315   3.5297450  43.0575848  36.7552495   3.8481826
  44.5074797  36.3528728   4.0121248   4.4545895  88.0487728  20.9302235
   3.9405254  87.2638988  21.1198092   3.8120425  88.6867237  20.6197786
 111.9699287  44.5907927  87.8159714 112.8943539  44.4524479  88.0221939
 111.6773510  43.7541389  87.4545193  26.1423993  96.9178391  33.7084484
  25.2957010  97.3386669  33.8575506  26.0861778  96.5761089  32.8160954
  40.6725359 104.8927784  19.5565164  40.3828812 104.2179108  18.9426076
  40.2699327 105.6989574  19.2336881   4.2599246  32.6472640  80.1772308
   4.9493927  33.1134176  79.7044039   3.8885078  33.3031940  80.7671833
 106.8808460  74.4184494  21.4683270 106.3180828  75.1918316  21.4307737
 106.8413448  74.0504026  20.5855966  46.4122057  25.1892161  25.4442978
  46.4415073  25.8924007  24.7955251  46.3071012  24.3905473  24.9272752
  62.9664421 105.2147293  57.3056412  63.9210224 105.1673698  57.2531080
  62.7010250 105.6210518  56.4806032  59.9175072   4.9798003  82.3897266
  59.3756723   5.7209009  82.1187592  60.1552773   4.5448899  81.5708542
  14.1255534  54.1044521   6.3599116  13.2697773  53.6951733   6.2319613
  14.7061396  53.6388254   5.7579637   7.5864768  71.8269014  24.2326665
   8.5075074  71.8185139  24.4931746   7.5942832  72.1612263  23.3357811
   8.3465230  67.9913187   0.3786840   7.5516135  68.4146070   0.0543737
   8.0321974  67.3392916   1.0050166  18.1630099  97.3871231  89.5544529
  17.9798257  97.9622841  90.2973270  18.1203783  96.5033245  89.9195957
  56.0899258 106.7413425  17.9142165  56.4319229 106.0547066  18.4867525
  56.8378162 107.3181915  17.7588439 105.2774620   5.8989394  87.3610687
 105.7793903   5.3999186  86.7166519 104.3863201   5.5574083  87.2872066
  16.2224853  64.4788074  15.5154204  16.2799478  64.9706745  16.3345647
  15.7266772  63.6921883  15.7426572   3.2097220  58.3269835  21.7874742
   2.9147792  58.5725880  20.9105945   2.8578734  59.0098572  22.3585367
  11.0130537  31.1545682  64.1649389  10.4645658  31.8704653  63.8441849
  10.4118133  30.4156780  64.2586708  19.3101597 102.5567722   6.3334817
  19.3455040 101.8829727   7.0124322  19.7786939 103.3014774   6.7104763
  96.8642426  48.1614923   1.1721851  97.6368332  48.5750628   1.5572830
  96.9158268  48.3777142   0.2411546  10.2454829  29.1345739   4.2210045
  10.4548001  29.2262912   5.1505232  10.7207394  29.8490286   3.7968403
 104.6230316  19.2257273  82.2382736 104.1645241  18.6551523  82.8550720
 104.0284348  19.2982602  81.4916611 108.6701393  52.7556610  13.7000835
 108.5907650  52.9451370  14.6349800 108.1242752  53.4168339  13.2745099
   7.3325044  57.9642153  36.7057872   7.4246371  57.2800207  36.0427475
   7.2822046  58.7781858  36.2046361  52.2265434  43.8991261   1.1656099
  51.4687061  43.7861681   1.7393325  52.5768995  44.7590256   1.3980958
 113.3079529  48.2788372   6.0125244 114.0692711  47.7830601   5.7111305
 113.5037708  48.4865332   6.9261700  22.7192974  91.1592293  18.6366403
  23.3890080  90.5905342  19.0165210  22.9002166  92.0230103  19.0072846
   1.8959394  96.4482880  25.2301097   1.9434913  96.7496872  26.1373758
   2.6357245  96.8742752  24.7971225  10.0855958  30.2595973  11.5094936
   9.2737985  30.5874896  11.1225784  10.6983256  30.9913611  11.4365780
  16.0793602  46.6558790  15.0184619  16.8611705  47.0583153  15.3966832
  15.3971219  46.7940855  15.6754863 102.9908562  53.7724447  14.9624467
 102.0610619  53.7606955  15.1895642 103.4326935  53.4423161  15.7447672
  27.3685884  43.6861467   3.0830640  26.4176202  43.5843658   3.0439347
  27.5186443  44.2429256   3.8470721 113.0200863  47.0940113  43.0080366
 113.5632324  46.9280863  42.2375202 113.6406422  47.1259737  43.7361336
  18.3625233  37.5987577  34.2375207  19.2822945  37.5030422  33.9903545
  17.9491580  36.7880034  33.9408088  83.8853359  20.1597428  76.9041204
  83.8799000  21.1166000  76.9291353  83.3420658  19.8976266  77.6473427
  88.3597946  33.3008432  76.8344116  89.0994930  33.8255644  77.1405983
  87.5905800  33.8386846  77.0222330  32.7368259  56.4534378  46.3692522
  32.6035166  55.6001663  46.7820358  33.2787967  56.9384861  46.9915342
 101.4210892  21.9655871  64.6687412 100.8048630  22.5012088  65.1683474
 101.2970257  22.2418118  63.7607002   9.8877424  70.5778074  25.3975010
  10.7124949  70.9044123  25.7571435  10.1136208  69.7322273  25.0099421
 101.9576740  62.4465942  13.4874284 101.1679554  61.9602203  13.7241066
 102.1742439  62.1381521  12.6075459 100.0858974  64.9697781  21.9662833
 100.2373886  65.0477362  22.9081988 100.9371281  65.1568604  21.5704989
 110.4930496  76.0907507   6.8123865 110.0414944  76.7181587   6.2478584
 111.4032555  76.1147547   6.5171301  16.2677228  57.5154495  12.5859618
  15.9402955  57.1984673  13.4277141  16.1700058  56.7691708  11.9945633
  25.3828073 105.5849743  77.3869562  25.4645014 104.6314526  77.3677492
  24.5923901 105.7473087  77.9018545 110.6818199  19.3156707  10.3641427
 111.4873123  18.8399935  10.5669904 109.9798679  18.7296343  10.6470788
  14.0371013  78.9844942   8.8212210  14.2863894  79.7944736   8.3762252
  14.4759500  79.0329790   9.6705109  79.1189671  32.8848004  82.8089714
  79.0028143  32.9441500  81.8607044  78.4356976  33.4497643  83.1697941
  82.7611923  17.6122618  72.0043564  82.9214954  17.7735043  72.9341602
  82.5971031  18.4801900  71.6355658 106.3437462  44.0361547  45.3087664
 105.6147385  43.4762001  45.0418806 105.9819031  44.5851040  46.0044336
  39.7269583  49.3904781   1.9701317  40.4303885  48.7670755   2.1512049
  39.7613811  50.0090218   2.6998249  66.3055563   6.3834983  78.3058119
  66.1219120   6.5777159  77.3866892  67.1780491   6.7467201  78.4576702
  88.7480736  11.5113008  84.9900913  87.8381348  11.3493240  85.2391052
  89.1921997  10.6787252  85.1507378  43.1793690  82.0560646  72.8742075
  43.9452028  82.3795891  72.3998022  43.5433817  81.5321350  73.5878086
  12.8939617  82.3930168  30.5908203  11.9815576  82.5763226  30.3668880
  12.8719485  81.5250492  30.9937882  80.7081985   2.1122250  78.0253792
  81.4935112   1.6872212  78.3701658  80.5530739   2.8467679  78.6191940
  82.2915459  16.2715447  88.8282108  81.6331100  16.7632127  89.3190956
  82.7364254  16.9316971  88.2966900  11.5009177  54.8999071  19.1321695
  11.7958295  54.1311407  19.6202874  12.2174716  55.5285072  19.2195797
 113.6020660  62.3579645  36.6618443 113.5699177  62.8560448  37.4786139
 112.7511215  62.5142813  36.2523389  22.8117156  63.1263399  27.1598887
  23.2601047  63.4236479  27.9515862  23.4780431  62.6381397  26.6762567
  12.5919795  87.0433712  25.3043270  12.1442091  86.5007782  25.9534216
  13.1665587  87.6089573  25.8202767  41.9506264  51.2972879   1.3833776
  42.1982431  50.5887794   1.9774555  41.0705948  51.0648918   1.0871116
  63.9129639  10.7505512  81.5465450  63.0315399  11.1160111  81.4706421
  63.9722252  10.4548407  82.4549866   1.7404298  39.9273467   7.0435452
   2.0728183  40.7329798   6.6476828   1.0015516  40.2119160   7.5814211
  12.5665021  51.3866663  16.8310249  13.0707729  51.5458488  16.0331500
  11.6565514  51.3510227  16.5361476   7.7211964  13.8130772  72.4232626
   7.2971123  13.4806776  71.6321278   7.3264563  13.3104324  73.1358337
 112.0862103  68.3631563   1.8826219 111.1750317  68.3653259   2.1758367
 112.1954346  69.2016029   1.4339396  12.4294305  25.9807658   0.6614377
  11.6431630  26.3116908   1.0956085  12.8159332  25.3757215   1.2945002
   3.9135632  73.0094671   6.0853624   3.1042397  73.3840418   5.7376277
   3.7917760  72.0631409   6.0087383   7.6958388  65.3537226   3.8908291
   7.0625639  64.6379900   3.8367572   8.3915234  65.1044655   3.2824507
  94.2195034  28.4718561   6.8451166  94.7838974  29.1813707   7.1521783
  93.3297729  28.7942767   6.9888330   7.6293904  67.0928335  28.8728452
   8.2946378  67.2784090  29.5355964   7.6938540  66.1490917  28.7264729
  26.3045835  85.5148792  71.7861414  26.7744589  84.8149967  71.3327026
  25.4228401  85.1659679  71.9165945 110.2153111  44.6677685   3.1721804
 110.6990051  45.4858685   3.0581957 109.8930073  44.7035742   4.0727741
  10.7879305  57.0952320  13.4220469  10.7232988  56.4441013  12.7234149
   9.8807257  57.3361206  13.6096168   3.6413908  26.8175149  69.1084623
   3.8531935  26.6321325  70.0233459   3.6991423  27.7703381  69.0375757
  49.6642923  26.2427163  86.7300701  49.5806503  25.3150344  86.9506264
  50.5756044  26.4555025  86.9312286 105.9957218  78.8100958  10.5984104
 106.8595123  78.6113119  10.9597647 105.9200668  79.7617388  10.6683159
  12.7797079  72.6281691  57.2453642  12.4845099  72.6836634  58.1542158
  13.4554577  73.3020639  57.1714497  84.2955017  78.5739422  82.1181393
  84.5358372  79.3999434  81.6983891  83.9068699  78.0525351  81.4157581
   7.7360648  38.1555438  33.5803866   7.1718282  37.6841116  32.9675055
   8.5276413  38.3478904  33.0777526 105.5827332  16.1285865  67.0325613
 104.9275684  16.7266428  66.6729450 105.2590466  15.2560365  66.8086910
  11.1657405  33.0280709  80.4858303  11.0482347  33.4603930  79.6399450
  12.0445323  32.6511788  80.4421616  17.2995567  54.2812014   1.6384345
  17.7727747  54.5952463   0.8679332  17.9791093  54.1490316   2.2994719
  18.2027948  58.6299849  27.7869987  18.6051321  58.6306238  26.9184613
  18.3676481  59.5090723  28.1279731   9.0858537  68.5831404   3.5795400
   8.6480606  67.7461624   3.7345853   9.8306531  68.3637762   3.0197319
  15.9836650  44.9832296   6.6470522  16.8513799  44.5807409   6.6831714
  15.4220617  44.3079424   6.2664986  43.3904314  88.9276695  11.7031825
  43.9339352  88.1628323  11.5138209  43.1283617  88.8149643  12.6168847
  85.7514521  38.7432245  92.5973039  85.2194515  38.1883196  93.1676404
  86.6440156  38.4162478  92.7097655  85.2234554  41.9124269  81.7164230
  85.6957722  42.6928329  81.4264011  84.3582249  41.9931555  81.3150597
  28.2580233  14.3113875  24.8098826  29.1997457  14.1403615  24.7979593
  27.9505324  13.9023495  25.6188130 109.5493889   0.7965366  76.8954754
 109.4136810   1.3005602  76.0931206 110.3572178   1.1508095  77.2671223
   8.3429480  97.1614647  22.6090980   8.6852366  96.2676907  22.5939441
   8.6742413  97.5309753  23.4276009   7.4502695   8.2565302  67.6824045
   8.2912230   7.8362346  67.8623533   6.8339097   7.5298434  67.5915241
  50.5178595   2.0537695  30.4789615  50.7676029   1.2217019  30.8808613
  50.4940891   1.8686955  29.5401239   0.6231821  28.5518098  81.0593605
   1.3644299  29.1486883  80.9568024   0.9732854  27.8202987  81.5678406
  34.7866797  68.0394077   8.5515469  34.8804331  67.1842241   8.1318980
  35.6472206  68.2150745   8.9321291  23.8815498  64.3545246  42.7593231
  24.3993258  63.6100245  43.0656862  23.1826830  64.4431019  43.4073734
  62.7815485 101.4151573  78.3653641  63.3664942 101.1377335  79.0704203
  63.3684254 101.6660881  77.6520348  95.5504704  95.9644604   3.1430125
  94.9895096  95.4748249   2.5415134  96.0924816  95.2963066   3.5625744
  21.6672373  86.8621159  23.8333511  22.5802135  86.9782543  23.5702562
  21.2595344  86.4141083  23.0922055  78.2687283  29.4114614  72.3568344
  77.9155350  29.6211052  71.4922285  78.0122709  30.1520729  72.9063368
  13.0484366  89.3107605  10.1206279  13.6682165  88.8228321   9.5783859
  12.8793776  90.1136780   9.6276993  28.3701944  70.3042078  79.5578671
  28.0147672  70.9314394  80.1875401  28.1730843  70.6857729  78.7024212
  83.5129261  58.9892530   5.3860873  83.4255791  58.0373716   5.4363334
  84.4554901  59.1398335   5.3144890  85.2028942  91.4877987  88.6150551
  85.6187630  91.4016724  89.4728851  84.7403145  90.6593513  88.4888935
  27.6730633  80.3549290  18.6528516  26.8421459  79.9627590  18.9211977
  27.8888392  80.9649849  19.3581939  28.4979272  79.5972538   5.1691633
  28.2645893  79.0277338   5.9022629  29.2866874  79.2006063   4.7993517
  46.7503786  73.6407089  23.6531615  46.2339973  73.3324146  22.9084873
  46.1009645  73.8520527  24.3238544  51.9301939  93.2934856  87.4416733
  52.1981573  93.7025261  88.2645416  51.7852259  94.0279293  86.8451881
  36.8838930  57.7880907   8.5793507  36.8224478  58.1823778   9.4494045
  36.3648915  58.3641911   8.0181217  15.3536427  82.8403091  32.5308585
  14.4677329  83.0313206  32.8389335  15.6981111  83.6885166  32.2513509
   7.6771402  58.2718468   7.5513524   7.2617769  59.0972376   7.3014784
   7.9956275  57.9047155   6.7267233  61.2200546  10.8556044   4.9470824
  60.8346176  10.9999323   4.0828836  61.3615179   9.9099517   4.9913430
   3.7702268  26.3055372  87.2896862   3.0554262  26.6188240  87.8438950
   3.3327124  25.8854556  86.5491867   9.7019678  90.4490280   6.7198241
   9.7860545  90.1120186   7.6117814   9.1392106  89.8144817   6.2760979
 111.7661953  30.7855892  92.2442055 110.9895515  30.7911301  92.8036976
 112.2306824  29.9846697  92.4871254  23.5442400  79.3510723   6.4372569
  22.8078246  79.9094820   6.6864681  23.9006090  79.0392351   7.2691154
 111.6770744   8.6853987  88.2893181 111.0296822   9.3589491  88.4977531
 111.1739349   7.8717911  88.2558060  92.2335339   7.6235026  80.3061676
  91.4577293   7.1896607  79.9510098  92.2012901   8.5079956  79.9416637
  80.9149265  71.3721800  91.5641689  81.8325043  71.1285448  91.6863918
  80.5020046  70.5825996  91.2144661  99.6492958  81.4908600  17.1278274
  99.2764282  81.6203308  17.9998553  99.4037437  82.2787762  16.6429389
  80.1016140   9.3046767  24.5588660  80.0150108   8.5314536  25.1164126
  80.9362793   9.1816700  24.1067314  22.0815587  91.3475800  41.0276127
  22.8461695  91.9211388  41.0789251  22.2155213  90.7068062  41.7259645
  99.8825264  47.4356985  83.3417892  99.1275883  47.0485640  82.8985882
 100.0575066  48.2420826  82.8566456  77.5260448  32.8431702  86.0809994
  77.2894192  33.5654521  85.4991531  78.4159231  33.0483294  86.3678074
  88.1944656  94.9577808  31.1808252  87.4570847  94.3489933  31.2242055
  88.6228180  94.7562504  30.3488827 112.5313377  18.1453454  65.8907175
 111.5811920  18.1730735  65.7780695 112.7014923  18.7247550  66.6333914
  42.0756102  88.8772869  42.6674080  41.6198730  88.0360603  42.6969671
  41.3967514  89.5092773  42.4308443 106.3111973  54.7944593  85.8801746
 106.6840363  53.9386082  86.0917091 107.0711517  55.3529024  85.7163429
  85.4628563  38.7473249  77.3004532  86.1109734  39.2002630  77.8399229
  84.6222019  39.1073656  77.5831318  38.2577732  69.0121849   0.1530656
  37.9731813  68.1019207   0.2346715  39.1568440  69.0124031   0.4815587
   3.1680465  34.3217897   3.2972443   3.0804661  35.0674272   2.7034545
   4.0491962  33.9863205   3.1321186  17.4344957  68.2755184  36.6965413
  18.0332732  68.8701582  36.2447667  16.6286981  68.7813282  36.8017817
  45.9085131  96.6259289   1.5449481  46.4096689  97.1566963   0.9257846
  45.0037003  96.6922951   1.2397538   8.2053477  70.3660202   5.3974265
   8.7497890  70.1162624   6.1440444   8.4953451  69.7933865   4.6873379
  73.3997774   7.9592693  88.0098724  72.8977346   7.7284092  88.7914658
  74.1925669   8.3751541  88.3486176  86.7222404  82.3431778  73.5424328
  85.9200954  81.9744778  73.1725025  87.0975590  82.8621578  72.8310728
   8.9640886  67.2038746  19.8700941   9.8855740  67.0891190  19.6378696
   8.6157906  67.7806807  19.1902304 103.3078861  68.5879755  16.2268901
 102.7573586  67.9856730  16.7272627 103.2917690  68.2420206  15.3345406
  71.9087410  39.7167110  87.9657745  72.5674677  39.0568399  87.7492619
  71.7997646  40.2200890  87.1589470  69.3139029  93.6973953  92.2929192
  69.8626709  92.9147816  92.3439121  69.8827028  94.3640995  91.9079304
 106.3394070  47.4038315  85.9672070 107.1394348  47.9173517  85.8554173
 106.4889431  46.8983650  86.7661953  90.7270718 106.0675240  88.4111691
  90.4865170 105.4040813  87.7644730  91.5334415 105.7357693  88.8060760
   0.7422892  19.4790506  79.8242998   1.4411175  20.0821590  80.0775433
   0.0023909  19.7226751  80.3805637  11.1049485   9.4840550  84.2462444
  11.0374141   9.2569929  85.1736736  10.4959238  10.2138340  84.1333675
  16.5705395  69.4262457   0.4066710  16.7172945  70.0536823   1.1144991
  15.7653868  69.7255993  -0.0156420  38.3829641 102.1772861   3.8081470
  37.5685501 102.0000076   3.3374697  38.2482696 103.0383205   4.2040044
 113.5166550  84.2350292  11.6850734 112.6721478  83.7861347  11.7241907
 113.7060356  84.3079472  10.7496321  65.6374741 103.5531044  80.8811378
  66.4381027 103.8339329  81.3242626  64.9565172 103.6222744  81.5502739
   0.3841261   1.0458119  50.7312393   0.4335730   1.6331196  51.4854670
   0.4381887   1.6260666  49.9718904  34.0981054  50.5291986  65.8206034
  34.5981479  51.2760115  66.1499357  33.5042429  50.3040409  66.5367460
  44.4724607  65.5248260   7.2027236  43.8047695  65.9136343   7.7677399
  44.9768353  64.9560499   7.7843893  92.5566578  28.5012388  88.6311436
  93.1832027  28.2351470  87.9581833  93.1003857  28.8080716  89.3567085
  82.6347446  29.9260020  84.8936749  83.0886078  30.5226302  84.2984581
  81.7146111  30.1831651  84.8350048  29.1388583  11.4328480  89.1377640
  28.7521982  10.9281850  89.8533344  30.0815988  11.2946951  89.2293549
  90.4377460  31.1112094  91.1774254  89.6493435  31.2152982  91.7101669
  90.1404953  30.6395602  90.3993320 109.9474430  50.6510830  34.6679235
 110.0382996  50.0026608  35.3661585 110.3601837  51.4402580  35.0187445
 100.9686565  33.9872146  66.1909056 101.5047741  33.6703253  65.4640007
 100.2219200  34.4130778  65.7699013   8.0096364   4.2591494  88.4218311
   8.7819362   4.8106730  88.5467625   7.6119184   4.2035711  89.2907143
  28.1503963  64.9384642   5.9752703  28.9044929  64.4803858   5.6041443
  28.3254576  64.9650192   6.9159514  27.1043539  66.1144972  47.7632427
  26.8375731  67.0292377  47.8543997  26.9848752  65.9216928  46.8333054
  42.8929901  60.9548950  12.4393964  42.4681854  61.7980146  12.2815061
  42.4776459  60.3572702  11.8176520   6.9143301  79.4573641  28.3334899
   6.8081671  78.5096788  28.2506847   6.9887614  79.7697353  27.4317598
   3.7402651  24.4061017  75.4533005   4.1788805  24.2141128  74.6244526
   3.2040170  23.6321187  75.6254053 103.4909439   3.1998822  61.7547607
 102.9319859   3.3562237  60.9936047 104.3827152   3.2393232  61.4091873
   0.7725611  85.7444286  15.0125909   0.5398796  84.9739265  15.5306828
   0.8793762  86.4434814  15.6576824  86.3891792   5.1837009  90.1182270
  86.6884136   4.8795792  89.2613697  85.4588223   5.3715575  89.9942112
  28.4098911  43.5121775  16.8226123  27.9924011  44.3732929  16.8429470
  27.9773951  43.0197763  17.5202680  45.8737469  71.2879324  30.1435184
  46.2159634  71.6880560  29.3441272  45.1321697  70.7595539  29.8483753
  29.1387677  59.5593786  18.5039043  29.8828077  59.5644045  19.1060758
  29.0614605  60.4674149  18.2111228  92.3373890  26.1017156  68.8366890
  91.9114494  26.7545438  69.3922329  92.5970840  25.4060102  69.4406605
  71.9031668  20.9601760  83.1522751  70.9903622  21.0308218  82.8729343
  72.3998499  20.9046221  82.3359108 108.6137772  67.6903868  14.9933684
 108.5960388  67.8423119  14.0484679 107.8246498  67.1776724  15.1683795
  92.5213718  10.5242407  75.5839729  91.7587757  10.1345670  76.0115623
  92.4391270  11.4622629  75.7559681  31.3348031  59.5275164  24.0470576
  31.8654108  58.8861752  23.5744381  31.5706134  59.4026566  24.9663162
  18.7035728  40.8358669  18.9807820  19.3578756  40.5958891  19.6369302
  18.0749583  40.1141405  18.9942598  39.5975161  75.0568628  22.0164537
  38.7038994  75.3735113  21.8844819  39.6741867  74.9440813  22.9638886
   8.2103074  59.8753881  30.8795142   8.8312173  59.7069168  31.5882587
   7.7624154  59.0394592  30.7497239  12.4565125  29.0637612  13.0348742
  12.7120292  28.3392572  12.4638784  12.7796304  29.8462319  12.5881445
  19.9815345  71.1232042   6.4877981  19.4837832  71.5714836   7.1715546
  20.6632495  71.7475557   6.2394381 106.5491486  20.9827423  84.6563148
 106.2689495  20.0686908  84.6090698 106.2382984  21.3711190  83.8385296
  76.4642650  95.9531719  92.5894612  75.5121952  96.0296709  92.6522514
  76.7957002  96.7634995  92.9764303  61.1320877  17.8437674  10.8101332
  61.3078308  17.4905872   9.9380034  61.6757584  17.3169565  11.3959014
  39.4889379  75.0898647  26.5770340  38.7253594  75.5542231  26.9198966
  39.4974661  74.2591286  27.0524669  75.1119361   0.1507256  20.2464676
  75.6270728   0.8456013  19.8365808  74.2019853   0.4115269  20.1043344
  33.3841300  62.2434330  22.5860047  33.5504460  61.9901609  23.4939837
  32.7259469  62.9357338  22.6471758  24.9075484  44.0113449  10.5925453
  25.7666755  43.7831402  10.9475887  24.3986678  43.2033396  10.6588459
 101.7982674  45.7868481  87.8893661 100.9939957  46.1046505  87.4790382
 101.9642162  44.9429512  87.4692154  14.6910167  67.6778269  21.3783455
  15.3903949  68.2880640  21.6122508  14.7070956  67.6504040  20.4216743
  87.1395397  55.6046820  88.1794834  86.9128895  55.2854872  89.0529728
  88.0636406  55.8455229  88.2448101 101.2680149  60.5151844  91.2100506
 101.0582256  59.5830774  91.2683201 100.5787373  60.8816481  90.6561184
   1.3399130  74.3040609   6.4113659   1.5066862  75.0234461   5.8023471
   1.7419159  74.5873833   7.2325569  15.5618548  75.1427031  39.2121315
  16.2535512  74.6858835  38.7334824  16.0293829  75.7178783  39.8177886
  55.3207111  94.0498352  24.1912293  55.8904457  93.6222458  24.8306036
  55.1612043  94.9200058  24.5567369  15.8798659  56.8898869   2.3909184
  16.3752949  57.7019739   2.4972109  16.5488505  56.2115765   2.2982591
  49.0383339  15.0897419   7.6245797  48.5721588  14.9777389   6.7961061
  48.6108112  15.8382916   8.0406702  73.9857864 100.7452202   2.0522368
  74.1091251  99.9649715   2.5928220  74.2751980 101.4693642   2.6072904
 105.1236916  97.1138477  34.4792199 105.5498123  97.2359371  33.6308408
 105.8431625  97.1120644  35.1105690 108.6133480  43.7137651  60.2907372
 107.7944374  43.8519287  59.8147821 108.7507534  44.5292664  60.7727242
  32.8040218  16.3628101  27.2703004  33.0058861  15.8415592  26.4932680
  33.3192897  15.9601700  27.9693079  24.1169047  70.0455475  27.6327586
  24.1366291  70.0830364  28.5890222  24.8643541  69.4951010  27.3991752
  10.5031550  96.3629627  39.1908216   9.6607423  96.6092205  39.5728302
  10.5551529  95.4154301  39.3161583  91.1588097   1.3896812  13.1818461
  92.0808411   1.2252061  13.3794641  91.1061478   1.3414493  12.2273135
  67.9872274  88.5218048   3.9595568  67.5653982  88.5153389   3.1003422
  67.6792192  87.7208519   4.3836251  20.3412461  82.5229073  24.4263577
  20.5273318  81.9288826  25.1535010  21.1363912  83.0482006  24.3367100
 108.4864044  47.7876425  56.7903709 108.4617519  48.5313845  57.3924303
 107.5661278  47.5827837  56.6249609  80.8526134  10.8322573  88.6960793
  80.3918076  11.5715802  88.2994843  81.7367840  10.8780718  88.3322525
  36.6035199  78.4793520  44.9147463  36.5947771  78.4507561  45.8714819
  37.5311613  78.5345173  44.6852446  57.0633936  13.5581946  16.4648747
  57.5015497  13.1168342  15.7372403  57.7540159  13.6936593  17.1136558
  31.8079042  98.7658882  13.5246682  30.9635520  99.2165089  13.5400963
  31.7089534  98.0948353  12.8492892  29.8100233  91.3550472   0.8569023
  30.1140642  91.3261795   1.7640725  30.1927257  90.5771351   0.4511624
  66.7312431   4.2777336  87.9628754  67.0194101   3.4618992  87.5534725
  65.7871342   4.1682640  88.0764771  27.5681973 107.2192192  78.5474730
  27.4729562 108.0312061  78.0496407  26.8752241 106.6501999  78.2124615
 110.5151176  92.7715969  72.8427267 111.1089134  92.0473194  72.6451015
 110.0639439  92.5001240  73.6420870  41.1704493  99.8785973  11.7625344
  41.4894295  99.6366119  12.6319766  40.4859543 100.5263329  11.9302499
  12.2574782  45.2583551  69.1863298  12.0374465  44.3458939  69.3740320
  12.1702528  45.3351927  68.2362127  98.9519405 105.1377773   6.6225892
  99.1910172 105.0460625   5.7002765  99.5612144 105.7923317   6.9640100
  49.3416119  88.7328625   2.1141191  49.2899418  89.6341515   2.4323066
  48.8079166  88.7284184   1.3195230  75.6844091   5.0905603  72.0645523
  76.2797403   4.3814287  71.8217659  75.5590820   5.5857879  71.2550592
  14.8979259 106.9571495  29.5798635  15.8444667 107.0985031  29.5621514
  14.6507144 106.8752289  28.6587739  47.7653027  45.7417440  17.4745119
  48.3185434  46.4531279  17.7971387  47.1299124  46.1728191  16.9029534
  67.6845932   5.4010493  21.9213986  68.4274864   4.8952898  21.5919280
  67.7955866   5.3980345  22.8721380  73.0489302  22.4931002  11.4232433
  72.5083208  22.6337957  12.2005343  73.6624146  23.2278562  11.4219761
  28.1135798  74.9884987  25.0413227  27.4946308  75.5822849  24.6164060
  28.2452726  74.2849112  24.4058323  72.3538065 107.2159100  73.5655785
  72.1904373 106.6054630  72.8466225  71.5116596 107.6476192  73.7092638
  96.1944199   5.7763314  10.2506495  96.9716454   5.9696698  10.7748413
  96.5384007   5.3855395   9.4474095  27.7164936  99.9370766   6.7872900
  27.4886680  99.5340443   7.6250815  26.9325805  99.8293972   6.2486643
  54.2022324  31.9671297  11.9174302  54.8968220  31.6016531  11.3695240
  53.4629488  31.3713384  11.7960811   9.0806288   8.4676266  82.1226501
   8.5904860   8.1659228  82.8874874   9.9939471   8.2702988  82.3303604
  24.9588394  95.5572796  12.4462950  24.8107886  94.6777630  12.0987868
  25.9114313  95.6404209  12.4897420  32.9914761  72.7010441  13.0475414
  32.5595427  73.5083342  13.3267212  33.9057422  72.8167343  13.3063173
  33.9739704 100.4102707  16.2407494  34.6634221 101.0315609  16.0064673
  33.6431813 100.7255173  17.0818400 106.2024307  88.0132771  17.5907767
 105.8144665  87.1544647  17.4229825 105.4795456  88.5402679  17.9312742
  19.8506498  26.0979986  75.3181267  20.2740860  25.4730654  75.9066772
  20.2507234  25.9320331  74.4645262  33.8271761  84.8035812   6.6073585
  33.3636618  84.0499878   6.9727075  34.7519803  84.5607948   6.6523403
 105.2479935  18.1467247  72.4382401 104.7800827  18.1479907  73.2732773
 104.5606804  18.2387507  71.7784166  74.6715784 102.4775791   4.5607921
  74.9878979 101.5800476   4.4577041  74.7217178 102.6425362   5.5023360
 112.0818615  80.7610321  16.9755411 112.4220657  80.9442806  16.0998070
 111.1949730  81.1210442  16.9681323  31.5846038 100.5216885   0.4663054
  31.5452814 101.4478111   0.2275789  30.8243823 100.3877640   1.0323070
  26.6985369  94.9644852  36.7544818  27.6415896  94.8474503  36.6396475
  26.3980222  94.1357994  37.1275854  13.1849980  95.7105350  20.3941536
  12.7541518  94.9038601  20.1115441  13.0977499  96.3029575  19.6473885
 102.5568199  52.7960825  81.3715172 101.8271351  52.2129440  81.5806389
 103.2909107  52.4535084  81.8813992  23.0190372 105.4015732   5.8954525
  23.2851410 106.1357212   6.4490300  23.6152148 104.6922112   6.1354756
  89.7460270  56.4951563  88.0808544  89.8580360  57.1188688  87.3634529
  90.1474285  56.9244766  88.8363552  56.4937687  68.7480545  24.7366905
  56.9929552  67.9522133  24.9202204  55.8587885  68.4842730  24.0707684
   6.3592178 101.6736126  29.4367766   7.0959663 102.0632076  28.9659810
   5.8378893 102.4219990  29.7272277  98.8217926  59.3345976  88.8766098
  99.6688557  58.9187670  88.7159824  99.0103817  60.0242424  89.5130539
  34.1069984  67.8968811  16.4799094  33.8836789  67.0655727  16.8985844
  33.2953978  68.4037018  16.5057397  93.4756660   5.7737774  65.4887676
  93.7184620   5.1889271  66.2065649  93.3916950   6.6344923  65.8990717
  30.9438539  93.6661243  21.9154072  30.9645724  92.8245258  22.3709345
  30.7631135  93.4402180  21.0029745 100.6394863  46.5635777  92.6844025
 101.0159302  47.4152422  92.4626160  99.7461128  46.6002798  92.3426819
  47.2212029  53.6617661  35.9612465  47.3060322  54.6119118  35.8821559
  46.6278076  53.5350800  36.7015624   1.4037161  91.1133194  21.8948007
   1.4105408  90.2047920  22.1960521   0.7564892  91.5455627  22.4520206
   0.5509240  41.5512848  89.0223122   1.3246040  41.4882374  89.5823860
  -0.1882536  41.4665508  89.6245384  26.4495230  65.6674099  14.5017910
  26.2504911  65.1820374  15.3024352  25.8240008  65.3346252  13.8582015
  14.7988033  49.9756384   2.7353123  15.2293813  50.3304529   3.5130915
  15.4491818  50.0667477   2.0389368  37.6650977 103.7656879  48.6717033
  38.4467769 103.3557892  49.0420961  37.9610467 104.1392708  47.8415966
  69.1491127 103.7108135  79.7853661  69.2964840 102.9479408  80.3444290
  69.0699196 103.3491516  78.9026642  36.4223742   6.4033931   9.2065901
  36.6083193   7.3298436   9.3593830  36.7388129   5.9623915   9.9950171
  96.9827461  60.1907158  71.9361162  96.8965054  59.9414110  71.0159826
  96.4452362  60.9780359  72.0223331  37.0992017  33.8516450  22.7233005
  37.4971318  33.9407277  23.5892940  37.1380401  32.9135108  22.5372195
  91.1812496  28.0426216  70.5137587  90.2955246  27.8609300  70.8279467
  91.6084099  28.4876990  71.2456560   8.1889975  71.4174461  17.1633565
   8.2374722  72.2208786  16.6453016   8.8475096  71.5339565  17.8482068
  38.9054680  89.2821980  15.8896375  38.5797358  89.7231483  16.6743028
  38.1984043  89.3759346  15.2512717   0.3399657   9.3591332  53.4340525
   0.7880633   9.5249689  54.2634726   0.1826909  10.2297091  53.0685472
  63.7705517 105.6337738  12.0292008  64.1538525 106.4166355  11.6336882
  64.3176031 105.4600906  12.7952302  43.4666491  13.7068653  21.3793039
  44.3255615  13.9419842  21.7303228  42.9020214  14.4431090  21.6146231
  82.7816772   2.0699750   6.4254200  83.3745289   2.5258085   7.0228922
  82.9073811   1.1422415   6.6247708 109.7544193  16.0614395  62.6899242
 109.1575336  15.6443083  63.3111763 110.4330921  15.4051042  62.5322628
  28.2329559  89.8514080  18.5088801  27.6515031  89.1095257  18.3422697
  27.9452229  90.5244637  17.8920829  30.6244040  76.5261793   2.1388493
  30.7182574  75.7250738   1.6234319  31.3958192  76.5382147   2.7054206
  47.4381638 106.9335651   1.5911497  46.5604877 106.9678783   1.9715884
  47.3741198 106.2741947   0.9002416   2.6782069  97.5734615  13.1130362
   2.1436545  98.3544445  13.2564199   3.2361853  97.5193787  13.8889015
  73.9242411  13.2922399  89.1820240  74.2461014  12.8971410  88.3717632
  73.8736343  14.2282915  88.9884377   6.5150017  69.1692829  92.3609829
   5.7719141  68.6928511  92.7311993   6.7663628  68.6597967  91.5906048
  40.7185078  92.5439548  19.2489135  40.5278921  92.5334644  18.3109438
  39.9164748  92.8756237  19.6526158  26.4319062  62.5726223  19.3120599
  26.3942504  61.6801929  19.6561348  27.2903848  62.6316547  18.8928199
  16.5771699  20.6907010  83.7190533  16.1444104  21.0237241  82.9329014
  17.3047006  21.2950826  83.8662148  61.0121679   4.2955565   3.6566949
  61.6451359   4.1071779   2.9638052  60.8222675   3.4420347   4.0461433
  67.3895693 103.4279251  40.5384588  66.8800974 102.6175785  40.5371475
  68.2320404 103.1817913  40.1564932  24.7551608  73.1121063  55.5790901
  23.8356781  72.8555202  55.5087328  24.7290587  74.0044355  55.9244823
  58.6569834  77.3605776   0.7716067  59.1098881  76.5462971   0.9908251
  58.5808372  77.8242779   1.6055210  43.6313725  80.1067066   0.7877954
  44.4082642  80.6624985   0.7264908  43.8497972  79.3317890   0.2700808
  17.7159131  24.0049076  79.0357685  17.8534353  23.0997825  78.7563562
  17.5078988  24.4757199  78.2287359  26.3395023 106.6571712  14.4330657
  25.4904795 107.0868015  14.3291223  26.1297631 105.7257938  14.5021582
  58.8488197  30.0206852  10.6338036  58.9365053  30.1228499  11.5814877
  58.4431696  29.1609192  10.5221057  58.5711336  71.3954687   8.8466430
  59.1030169  70.8232307   9.3997037  57.9287386  71.7771769   9.4448543
  88.6077499  27.8723645  12.4309897  88.5913849  28.4297895  13.2089627
  89.5153141  27.9092193  12.1289861 108.8434601   1.7474860  87.8573132
 108.8338470   0.7979274  87.7369881 107.9205990   2.0007838  87.8374767
  90.6921005  96.9824791   7.5616509  90.6418896  96.0803604   7.8777075
  89.9915981  97.4388885   8.0277258  21.0023880  80.5883217   7.1699923
  20.2095318  80.4879189   6.6431826  20.9461141  81.4772797   7.5204480
  48.7275362  71.5118551  26.4742327  48.8828373  70.5761957  26.6032887
  49.3885708  71.7784786  25.8353472  97.1031570  42.3030949  72.2812986
  97.2972965  41.9142914  71.4284325  96.4791584  43.0030012  72.0889950
  81.5761185  27.8811741  65.0664520  81.3006020  28.7610817  64.8093891
  82.4926949  27.9825830  65.3230190 111.6075230  35.8945751  88.4390545
 110.8228779  35.5597281  88.8731575 112.3344040  35.4918218  88.9140892
 108.3202362  54.9956226  91.2323570 108.6340523  55.8989906  91.2733555
 108.3207989  54.7840071  90.2988434  54.5282650  40.7991600  76.9642019
  54.3441772  41.3447380  77.7288532  55.4087782  40.4576254  77.1200418
 109.9178028  66.6311216  79.8820210 109.1757011  66.4848566  79.2953968
 109.5223045  66.9473886  80.6942940  32.2451091  70.8620739   4.9453402
  32.6731706  70.3481197   5.6300610  31.3599133  71.0126925   5.2769637
  27.2587061  69.0095472  12.9067945  26.8372869  69.8416090  12.6915896
  27.6364541  69.1498947  13.7750340 109.4060421  11.2291777  71.2115908
 109.7082901  11.2353802  70.3033876 109.4971848  12.1371555  71.5005589
 113.7267590  53.5467243   3.3658981 114.2936611  53.4528923   2.6003584
 112.8457928  53.6351871   3.0021560  81.4926910  24.8718810   5.6676596
  82.2693443  25.3624797   5.9366399  81.0176468  24.7097421   6.4826924
  60.0383902  76.2507820   4.3920466  59.4117737  75.5451727   4.2317328
  60.3916121  76.0643768   5.2619439 109.5031929  86.1896038  67.4532938
 108.7055302  85.6654835  67.3807573 109.8785877  85.9388924  68.2973671
  95.2216339  10.1573515  15.6662035  95.9916782  10.6529295  15.3875029
  95.0301933  10.4861617  16.5445340  20.5278254  89.0702915  32.3794293
  20.1292396  88.2007980  32.3427415  20.1615119  89.5336628  31.6262174
 107.8876686  29.2116523  67.9704571 108.2390022  29.9273086  67.4407101
 108.2926846  29.3285942  68.8298273  14.7861695  81.9987679  60.2247906
  15.5967832  82.3610973  59.8672199  14.8776901  81.0523701  60.1144314
  61.4669609  23.8070750  12.4492395  61.1091995  24.6461535  12.1590912
  61.8311977  23.4147573  11.6557360  55.7434702  29.8451042  45.9397459
  56.1402559  30.6112456  45.5252314  56.3184071  29.1183519  45.6999254
  94.1815490  37.8316992   0.3660402  93.9463443  38.4331911   1.0725221
  94.7208602  38.3563822  -0.2256289  14.6963942  12.3322403  84.2001534
  14.4348824  11.4546418  83.9214706  15.6425810  12.2700119  84.3308830
  66.8711424  94.8839760  22.0316458  67.4615908  95.1194191  22.7473044
  67.1696949  95.4120827  21.2912393  95.0619316  24.3232274  43.5224199
  95.9043407  23.9040422  43.6980867  94.9224091  24.9034023  44.2708588
  47.1996355   5.0432724   2.4660869  46.7615557   4.7672412   1.6610238
  47.6393557   4.2540017   2.7822012  41.2465382  91.5701866   3.9500675
  41.7698479  91.3902760   4.7311014  41.8912506  91.7554283   3.2672331
  82.7421856  45.7703304  92.4705315  82.6732063  44.9665976  91.9552803
  83.6360073  45.7594013  92.8128719  17.2003806  61.7615509  83.5753059
  17.7651060  61.6101980  84.3332005  16.5299022  62.3662519  83.8931561
  20.4030752  89.3145561   7.2690535  19.9807930  89.5173264   8.1037939
  20.5927110  90.1695156   6.8826526  93.0939579  52.1912193  81.5180874
  93.5440922  51.3597918  81.6675472  92.1732807  51.9501305  81.4158344
  13.4721076  87.5626373   7.6760888  12.9621303  87.9326344   6.9554931
  14.3044066  87.3108673   7.2759366 103.4206295  40.7356215  77.7211046
 103.7985039  41.1899614  78.4741116 103.5565758  39.8068976  77.9087877
  78.5375834   1.0959649  27.7359200  78.1373835   1.2511989  28.5914731
  78.5694075   0.1426541  27.6558089 106.5255451  72.3485947  85.3946877
 107.3886871  72.4928284  85.7825089 105.9543419  72.1692133  86.1415291
  23.1823921  44.6866608  55.1207685  22.2674465  44.6254873  55.3952932
  23.5584736  45.3590012  55.6888819  16.0420632  25.5596113  57.8235149
  16.3515484  26.2545776  58.4044361  15.3909922  25.9856796  57.2660160
  31.5357065  61.4011955  79.5138073  30.6500292  61.7594528  79.5726395
  32.1063948  62.1695042  79.5296812 101.5851021  79.6205664  73.0032778
 101.1856461  78.7801266  73.2276011 102.3284435  79.3911791  72.4455547
  34.9325490 101.2938499  23.5590529  35.2547884 101.2845135  22.6577711
  35.4488373 101.9743919  23.9909625  78.0843163  60.4321957  84.5872021
  78.7579966  59.9694443  84.0889454  77.7794409  59.7917509  85.2299309
  83.1187439   5.6137061  12.1038032  83.8300610   5.8677864  11.5158391
  83.5068130   4.9533051  12.6778281  29.4466400 107.0306683  45.8323240
  28.8399529 107.3271561  45.1539040  29.1523695 107.4748421  46.6275263
  25.9913826  73.3659887  19.6400630  25.3780723  73.6630964  20.3122330
  26.3610077  72.5570011  19.9938262  60.0918770  98.0495644  36.5471196
  60.6281233  98.0429077  35.7542634  60.7100010  98.2399368  37.2527480
  15.5738306  47.8530312   6.5881890  15.7520223  46.9456816   6.8355775
  15.0832462  48.2110739   7.3280293  61.8845749  25.4479599  25.5685139
  61.9125366  25.1249433  26.4691305  61.0434294  25.1411533  25.2300310
  10.8016157  16.1274624  84.4837570  10.5515909  15.6934607  85.2994537
  10.7903433  15.4300833  83.8281918  10.8005512  31.5905094  68.5787725
  10.9141958  30.7538390  69.0296602   9.9646765  31.5039945  68.1204510
  88.5641766  42.3091984  79.8349619  87.6566792  42.6036024  79.9124765
  88.6415195  42.0071650  78.9299631  73.3571577  14.7154117  27.5197697
  73.7890911  13.9134467  27.8139043  72.4355030  14.4725192  27.4315238
  40.0436735 100.7800007  36.2049413  39.9588156 100.3206253  37.0404053
  40.2354336 100.0895309  35.5703473  35.0248122  17.3441458  91.1373997
  35.5273581  17.6911163  90.4003239  34.1105032  17.4461007  90.8730602
 112.2804356  35.6512976  81.5699482 113.0807972  35.1285744  81.6190910
 112.1020603  35.7286525  80.6327057  58.5305786  10.2118921  18.6779165
  58.2017231   9.4775558  19.1964078  57.9536724  10.9416616  18.9034045
  30.3663898   6.0268617  89.1929531  30.7634306   5.1738429  89.0170288
  30.0112009   6.3044500  88.3485508  38.8431954  70.0434780   6.6408426
  39.0479088  70.1315641   5.7099479  38.4670734  70.8893013   6.8844467
  32.4240613  75.8764601  19.0006280  32.4268818  75.7271862  19.9461126
  31.5038657  76.0277033  18.7847722  27.8433919  58.4271240  87.4456501
  26.8889666  58.4190702  87.5180054  28.0346441  57.8184175  86.7321110
  94.6625423  70.6340313  86.3390541  94.9416542  71.3984966  86.8429565
  94.7299862  69.9039173  86.9543743   6.3413107  20.5299854  53.9730930
   6.1637199  19.6627247  54.3371677   6.8930894  20.3607750  53.2094574
  28.0632114 106.6870975  16.6186500  27.8054214 107.3507214  17.2584808
  27.4304318 106.7821884  15.9067631  54.9564314  79.6398878  20.9357929
  54.9539995  80.3131104  20.2553487  54.3263674  79.9530268  21.5847874
  35.9080768  51.7712593  89.2464256  35.3611326  52.3119354  88.6765575
  35.5506301  51.9100380  90.1234722 112.3243713  12.3115242  27.5021982
 112.5667572  13.1518316  27.1131468 112.0232868  11.7832685  26.7629242
  87.1381092 103.9538574  89.4602013  86.2932873 103.5066605  89.4099998
  87.7811146 103.2464123  89.5081425  16.4311492  85.0146008  20.4787803
  17.3631549  84.7965431  20.4858232  15.9917772  84.1823769  20.3038788
  35.1139998  87.6204967  48.8930607  34.9740553  87.8635883  49.8082399
  35.6120992  88.3502674  48.5248709 100.8173084  18.7424886  70.0309992
 101.7030430  18.4536409  70.2507305 100.8921146  19.6918261  69.9340677
  48.1357288 103.7609768  21.5245628  48.4060621 102.8677368  21.3117909
  48.0282307 103.7585449  22.4757028 107.9442120  50.7426214  85.7380009
 108.2742500  51.3348627  85.0623131 106.9917107  50.8052540  85.6669521
  97.6446056   1.0506818   7.7487397  97.7967548   1.1507954   8.6884522
  97.1825123   1.8494666   7.4944890  45.7998419  83.0122757   7.8642440
  46.1107349  82.1781731   7.5123340  46.3779449  83.6674881   7.4734432
 114.0528011  56.8029499  89.9268055 113.2527924  56.3123751  89.7382355
 114.0185833  57.5538683  89.3341923 100.9958839   4.2601794  45.7636833
 101.1129856   5.0958782  46.2154865 100.5704117   3.6962646  46.4095926
  70.2936697  14.6775615  20.1086760  69.7393179  14.8624730  19.3505669
  69.6932936  14.3201828  20.7629371   7.5837636  53.2518721   1.7973588
   7.9161942  52.8380680   1.0008097   6.9300938  52.6376104   2.1314764
  52.4978828 104.0426350  78.5977316  52.6793146 103.1806374  78.9722633
  52.7252293 103.9542866  77.6721287  38.9528203  94.3426991  80.5164719
  39.6822166  94.9119568  80.7617378  39.2655969  93.8720798  79.7438622
  71.9228935  13.4194863  56.4393044  71.6854811  14.2364204  56.8780375
  71.2616777  12.7910042  56.7292070  43.8759089 106.1415958  73.2930851
  44.2830563 106.1574268  74.1592360  43.1898069 105.4778194  73.3630419
  49.2982674  38.8406682  69.3591976  49.4625998  39.1327405  68.4625816
  50.1316023  38.9736915  69.8109579  87.6190853  99.2102337  90.6378746
  88.2497978  98.4915066  90.5947304  87.7503967  99.5923519  91.5056133
 109.2439079  30.0302005  73.3136606 108.8033962  30.2932858  74.1217232
 109.0120792  29.1080213  73.2037973  14.3042922  32.8024244  91.9963360
  13.8510525  33.0578852  91.1928749  14.8882055  32.0934391  91.7268562
  11.8943357  10.7453191  70.2099180  11.5192556   9.8806757  70.3770685
  11.5020514  11.3094652  70.8763170  81.2539101 101.1930943  76.5512228
  80.6177711 101.9032669  76.4663315  80.7762718 100.4962158  77.0011711
  20.6459022  61.0936499  10.5583739  20.8662200  61.5676832  11.3602364
  20.0644159  60.3905821  10.8478582  59.1314840  69.7969723  76.6025209
  58.7445164  70.3200006  77.3046064  59.0318298  68.8912630  76.8957710
 110.9258556  19.0926754  87.2200775 110.2449036  18.6852682  87.7553749
 111.6662312  18.4883463  87.2736645  80.9295368  64.7375679  91.8252087
  80.3008747  64.4216871  92.4742317  80.3894138  65.1356506  91.1425400
  46.0754919  45.2687216  20.1238251  46.6415787  45.5773258  19.4163358
  45.3539515  44.8257303  19.6773171  32.9252076  91.9735813   0.6809068
  32.4927473  92.1028519   1.5250024  33.4270334  91.1658192   0.7901151
  29.3156767  72.5070143   5.6838703  29.5059991  72.0461416   4.8668003
  29.6203756  71.9134665   6.3702297  43.2137060  83.1182861   8.5652059
  44.1237831  83.2396412   8.2945329  43.2705736  82.6170826   9.3787104
  33.0559111  53.0858612  27.4245763  33.7394357  52.5885344  27.8736758
  33.4821081  53.4198046  26.6352248  15.1625323  26.2405658  61.1341715
  14.2448032  26.5042520  61.2010527  15.5561805  26.8891835  60.5505896
  29.0066457  72.0655489  27.6767564  28.9984941  71.2665510  28.2037902
  28.5909963  71.8129301  26.8523479   6.8455189 100.7946873   5.0428826
   7.7285206 100.9966469   4.7334415   6.6114002 101.5369129   5.6001216
  37.7188873  86.7220974  38.6094713  38.6340809  86.4922428  38.7701678
  37.3072314  86.6840172  39.4727921  93.2601357 106.0735226  73.7832785
  93.5718346 106.9785309  73.7775517  92.6098061 106.0486221  74.4851923
  60.9201384  81.5957832  85.7643318  60.1977015  82.0462513  85.3268528
  61.7033720  81.8935871  85.3016376  64.8020506  74.9395132  20.4761267
  64.0268946  75.1945162  20.9764671  65.2738285  74.3400621  21.0543275
  96.8506813  35.1421785  83.6635017  97.3726940  35.9209394  83.8565540
  97.3350239  34.4227242  84.0684986  50.1278257  24.8334384  89.6670914
  51.0844040  24.8115301  89.6937561  49.8743486  25.2394032  90.4960537
  96.6392040  54.0428400  23.9046955  97.1268368  54.2042971  23.0969930
  96.0302162  54.7786140  23.9679599  11.5446401  34.3699145  24.0541625
  10.7913780  33.8498902  24.3341708  12.0423818  33.7831879  23.4847450
  43.6137438  65.9998941  11.1219025  44.5185328  66.1041212  11.4164007
  43.4606409  66.7506027  10.5481231   4.1228887  29.7749496   1.1335663
   3.4143394  29.2863059   1.5523948   3.9135674  29.7474170   0.1999398
 102.0277214  64.0007210   3.2095158 101.8461990  63.7819767   4.1235361
 101.6324615  64.8638153   3.0867505   1.1058930  57.5387001  15.0197244
   1.6668962  57.7054787  15.7771504   1.4324331  56.7155218  14.6564353
  78.3028889  81.6388226  61.0109663  79.2565918  81.6476917  61.0922575
  78.0586815  82.5626469  60.9549284  10.3534245   7.2659665  67.9172182
  10.4906476   7.0597923  68.8418198  10.5222511   6.4418960  67.4604464
   4.4512439  28.7464690  55.7578516   3.6983073  28.3471656  55.3221035
   5.1713037  28.1361079  55.5990887  14.3095398  47.9738712  16.8483627
  14.5203805  48.8285542  17.2242570  13.5823047  48.1478500  16.2507892
 107.6310921  19.7958183  77.1893454 107.2323418  20.6068349  76.8739367
 108.5474968  20.0242591  77.3450708  19.9762285  21.6873741  18.0655491
  19.8676884  21.0561395  17.3542154  20.6230330  21.2856555  18.6456347
  29.8758125 100.6408978  17.5897384  30.5167675 101.2270832  17.1875060
  29.2852592 100.4046822  16.8744183  33.5653687  68.6503744  36.7297196
  34.0214896  68.1220055  36.0747290  34.2389488  69.2349815  37.0772171
  53.2754803  81.7415047   3.3590665  53.7535572  80.9146309   3.4219438
  53.5753965  82.1296692   2.5371104  73.9674902  82.0091820  58.1020069
  74.7897863  82.4748898  57.9497766  73.4526348  82.6041603  58.6471224
  49.7498083  88.5378551  40.6190348  48.9307213  88.6326218  41.1051893
  50.2485847  89.3260002  40.8341599   2.7720737   9.1152012  68.8983250
   2.8107548   8.6149168  69.7134638   2.6722249  10.0245750  69.1799307
  22.8525686  52.0652151  80.4927349  23.4919238  52.4672842  79.9046946
  22.0780110  52.6231384  80.4219341  21.5320587  43.9770651  12.6868546
  20.8490515  44.2499733  12.0742762  21.6687036  44.7399378  13.2486212
   2.1347350  12.0925093  87.4613094   1.4562857  11.4172888  87.4572372
   2.4967656  12.0736241  86.5754128  66.2772799  75.7430124  11.3698518
  66.1244011  76.5077305  10.8148146  67.2128677  75.5631304  11.2773740
   1.7419598  95.4533100  68.7573910   1.9882220  94.7012711  68.2188416
   1.7667924  96.1972523  68.1555891  28.9261651  73.8204145   9.6041763
  29.6697688  73.8438749   9.0019000  28.4845185  74.6593237   9.4722277
  72.0590353 104.4182873  62.3750830  71.6833067 104.0994644  61.5544653
  71.5442896 105.1967907  62.5876808  13.3579874   7.5151408  67.7422380
  12.5899184   7.6675004  67.1917057  13.0246866   7.0100725  68.4838915
  57.8472900  94.3450642  81.1274052  58.4808064  94.0319920  81.7730713
  57.6004171  95.2164841  81.4370918  42.4293661  52.4566698  16.8001056
  41.5144777  52.7341795  16.7532766  42.3858690  51.5172625  16.9786012
  77.4129772 101.6889381  91.1032200  77.1770668 101.6984272  90.1755905
  77.5984097 100.7694149  91.2938023  24.7640562  58.7021637   2.0704852
  23.9728165  58.5853672   2.5963461  25.2980566  59.3162870   2.5744015
   5.6432283  31.1122346  73.0846453   6.2975580  30.6321716  72.5770760
   4.9116731  30.5010486  73.1713104   0.6430101  61.5815687  11.2421894
  -0.1759958  61.9781065  10.9451652   0.3733778  60.9354544  11.8949270
  67.9579830  88.7015247  77.8023624  68.1896925  89.5447540  77.4131155
  67.9863548  88.8575935  78.7463236  52.0098686 101.0264969  78.1272078
  51.4995241 100.2184963  78.0732489  52.6314449 100.9660816  77.4017954
  29.6811056  59.7604370   2.8069827  30.1157713  60.0268936   3.6171061
  29.5075274  58.8264513   2.9243177  13.5276973  35.8596826  83.2864285
  13.1751394  35.0822544  82.8533745  13.2124317  36.5923381  82.7572250
  14.3196619  51.0926151  60.1540518  15.1524222  51.1595583  59.6868706
  14.0120792  50.2051973  59.9693489   7.3062932  38.9368534  52.8441286
   6.5511084  39.3695354  52.4457407   7.9159290  38.8028574  52.1184444
  87.1522236   7.6369816  91.4334297  86.6206455   8.2398456  90.9136105
  87.2862816   6.8814743  90.8611774  82.6330662  18.0976868  85.8675575
  83.4513474  18.0388713  85.3744316  82.7120209  18.9107347  86.3665104
   9.2670733  24.2662191  87.8907681   8.8882715  23.8358617  88.6572742
  10.2127790  24.2106247  88.0278206  29.3461442  91.5947723  81.3147163
  28.4117723  91.5888309  81.5224361  29.4223428  91.0406685  80.5379391
  92.4173641   3.7566245  10.7483149  91.6435242   4.2756623  10.9674156
  92.9963303   3.8592696  11.5036261  33.6657357  21.3593578  57.5407839
  34.5736575  21.6570425  57.4833870  33.2743812  21.6221952  56.7077255
  59.9092722  27.2018290  30.4606915  59.1995716  26.7023706  30.8645415
  59.4839334  27.9875803  30.1173043  60.0060654  88.9632702   8.2238370
  59.5241737  88.3293438   7.6926589  59.9441385  89.7829437   7.7334017
  20.5715561  70.6799793  27.1769238  19.7511137  70.2237892  27.3640060
  20.9831405  70.1594210  26.4871073  29.9144411  35.6867146  47.0339394
  30.1741695  35.6722450  47.9551172  29.1243482  36.2267876  47.0163155
  49.6684074  49.2298985  34.0518093  49.3594742  48.4673071  33.5626841
  49.9542379  49.8468590  33.3780956  58.0323553   4.5868087  13.7321746
  58.4598112   4.3391004  12.9123235  57.0962429   4.5392403  13.5381138
  25.8987308  75.1364613   6.8270659  25.8372259  74.1909885   6.6909409
  26.7888331  75.3601789   6.5552217 112.5607586  67.6338005  67.4899387
 112.1021938  66.9233036  67.9384184 112.6442528  68.3203220  68.1517172
  92.2869873  77.1483469  57.3284149  92.9659176  76.4753580  57.3771143
  91.6799355  76.9277191  58.0348492  50.4222393  46.3021994   0.2322939
  51.0402393  46.9263458  -0.1481589  50.6413460  46.2858152   1.1639346
  46.6743708  73.5174894   2.7902347  47.2941065  72.9314280   2.3558477
  46.0704041  73.7838078   2.0970333  64.4100189  68.0663204  29.3837547
  63.6275673  68.5634375  29.6222448  64.2554045  67.7960157  28.4786248
  76.1201286  44.6075535   9.0496707  76.2005186  43.9289951   8.3793485
  75.3088999  45.0658894   8.8304287  21.1571264  78.3577108  13.0639946
  20.7096386  78.0349493  12.2818124  21.8075967  77.6842403  13.2628727
  14.5929062  22.5850320  89.3601513  14.2923105  23.1297040  90.0876141
  15.4964542  22.8631163  89.2101479  47.3631096  57.9471159   9.2944509
  47.4077797  58.6769533   9.9121654  46.4506674  57.6598740   9.3286705
  17.4773037  91.8390369  32.5059605  17.9117155  91.3925457  33.2327080
  16.5985894  91.4601421  32.4829626  84.2996025   0.9887064  73.1999111
  84.2414951   1.6787881  73.8606977  84.0045547   1.4064223  72.3907804
  61.3326120  79.6185207   8.5025615  60.7266283  79.5036125   9.2345530
  61.4443398  80.5664539   8.4306610  77.8220367 102.2407532  18.4257019
  78.4712982 102.2421741  19.1290426  78.3361006 102.1334553  17.6254177
  54.4893694  36.6512752  82.8553486  54.2809725  36.0436177  83.5649681
  53.6369991  36.9359803  82.5257492  20.6870151  12.0956862  54.6831465
  20.7385468  12.7065003  53.9479733  21.4762878  12.2706282  55.1956654
  28.1766725 100.2423859  15.0746799  28.5922718 100.4498863  14.2377496
  27.6527929  99.4617081  14.8949134  57.8327274  10.2013826   7.0016479
  56.9336653  10.5057240   7.1253043  57.7677011   9.5331997   6.3193470
  70.7304305  49.9465673   0.1288518  71.5236777  50.2335184  -0.3235427
  70.3113002  50.7580202   0.4153928  45.2579069  32.3050380   8.1318307
  45.4236460  33.0122232   8.7552518  44.6506643  31.7217851   8.5871404
  60.8352518  72.4256659   7.0441073  61.5864229  71.8876362   7.2940975
  60.0757933  71.9432449   7.3707962   1.9141570  32.7670169  77.7692986
   2.4982443  32.1139288  78.1547165   2.4284735  33.5742784  77.7629280
  67.6789141  93.8714695   4.9016494  66.7741871  94.1838360   4.9129686
  68.0923271  94.3079281   5.6465197  14.2206419  72.9873133   6.5430689
  13.2907915  73.0283213   6.3196230  14.6267188  72.5444269   5.7979620
  40.4602337  47.6602268   5.3029591  41.1103058  47.0613098   4.9356231
  39.6178174  47.2922945   5.0361419   3.7283775  12.9905057  79.3328953
   4.1928738  12.4355745  78.7063789   4.0029299  13.8809061  79.1137123
  41.3488054  87.2332001   3.9749640  42.2746325  87.2304630   3.7319207
  41.2169266  86.3988972   4.4252756  82.8968620 105.9997177  69.6590900
  83.0056572 105.9119701  68.7121534  82.3396015 106.7706394  69.7657394
  54.8772192  76.1789513  27.0288277  55.3497314  75.7275486  26.3294005
  55.4396772  76.9183493  27.2593927  80.6210899   5.2851206   8.3913565
  80.9340668   4.6284512   9.0134990  79.7170925   5.0295067   8.2078236
  17.4961865  41.3334703  77.1123886  16.8454349  42.0183516  76.9584751
  17.1811938  40.8744144  77.8910255  13.5515594  17.1550417  86.4438725
  13.2894790  16.7615843  85.6115627  14.3860400  16.7361438  86.6545773
  54.7784281  59.8869419  21.2024927  54.3718767  60.1994705  22.0107460
  54.5746517  58.9520073  21.1778545   8.1398237  40.9506178  62.9546547
   8.2928121  41.6735458  62.3462105   8.0356508  41.3730955  63.8072348
  16.9952345  76.1630583  30.3756380  17.0552218  77.0165873  30.8047271
  16.8233943  75.5480528  31.0887122  52.5322199  52.8654337  13.2460594
  53.0525684  52.2869205  13.8035452  51.6242313  52.6389885  13.4473395
  11.1033082  34.2100501  77.9739285  10.7111609  33.8599014  77.1740198
  11.1835921  35.1496649  77.8098726  47.7793217  71.4850330   5.7076097
  46.9997978  71.9455338   6.0182679  48.5105848  71.9534922   6.1101472
  43.7275219  96.2934494  19.5850766  44.0853882  96.0504341  20.4389524
  42.8111362  96.0194874  19.6226776  94.8833847   6.8149436  13.4464157
  93.9444065   6.7700207  13.6267507  94.9640274   7.4771035  12.7599216
  27.9307961  56.6577768   1.8565613  27.2330594  56.3395405   2.4293771
  28.7396860  56.4262152   2.3129731  56.9069099  72.8578758  10.3298426
  56.3555861  72.5600719  11.0534358  56.2875032  73.1145430   9.6466970
  58.5672426  72.4161673  14.5365059  57.7965403  71.8494129  14.5042610
  58.5074472  72.9471779  13.7423491  74.8506069  99.7757721  84.3076801
  74.3413830 100.1673508  85.0173187  75.6909370  99.5550823  84.7093964
  11.0997820  22.1410823  72.1173525  10.1867092  22.0198131  71.8569231
  11.0891628  22.0629048  73.0712986  84.7494698  40.9307241  13.3806026
  84.5364475  41.3699293  12.5572228  84.5534134  40.0081015  13.2176256
 100.9200573  36.8518662  81.9445324 100.2476406  37.5327969  81.9650841
 101.0981846  36.6632676  82.8659058  38.6468863  91.1478138  18.0821478
  38.7334037  90.6582355  18.9001060  37.8149676  91.6133118  18.1684792
  12.2285926  18.3283949  78.0661964  12.6937616  18.1756282  77.2436953
  12.1098590  19.2775464  78.1014919  43.0981731  43.6253691  23.2518268
  43.3159351  43.7834549  22.3332310  43.3171368  42.7045918  23.3948493
  11.4594066  45.3271532   7.0282215  11.8335283  45.4023361   6.1503762
  12.1710575  44.9745083   7.5624740  69.5368052 105.6799126  63.7713146
  69.0861893 104.9063206  64.1100168  68.8499165 106.1868191  63.3383465
 113.8362456 113.8362456 113.8362456 109.4712190 109.4712190 109.4712190
