
42902  0.0000000e+00
  38.9226294  53.8200521  20.1179361  38.3456135  54.2123556  20.8481765
  38.3878660  54.1263342  19.3177354  39.7534704  54.3885422  20.0365329
  39.1962457  52.3604345  20.1315260  38.2381749  51.8424606  20.1752830
  39.8795724  51.6829348  18.8732004  39.7723126  50.5982256  18.8705683
  39.3657684  52.0890903  18.0019116  41.3968039  52.1418095  18.8539410
  41.6527367  53.3029842  19.1915619  42.3525381  51.3554382  18.4282660
  43.2762480  51.7630863  18.4544671  42.1517754  50.3954983  18.1868005
  39.9557972  52.0889711  21.3965130  40.4143810  53.0346775  21.9775820
  40.0297785  50.8291388  21.8667793  39.4041586  50.0957489  21.5653777
  40.7871628  50.4805470  23.0592799  40.4639006  51.2179518  23.7940168
  40.2920055  49.0517426  23.5726762  40.7036829  48.8954449  24.5697689
  39.2092896  48.9457083  23.6403847  40.8238125  47.8819513  22.6607299
  41.9092035  47.8584003  22.5634050  40.4869986  46.5543270  23.4123254
  40.8223677  45.7087183  22.8118467  40.9471989  46.5373945  24.4002700
  39.4058990  46.4400434  23.4914613  40.3644705  47.8978586  21.1746716
  40.5264711  46.8868065  20.8009934  39.3156648  48.1875134  21.1097765
  41.0163450  48.5135937  20.5549717  42.3252106  50.5844259  22.9110384
  42.8168392  50.4053259  21.7611718  43.0703354  50.8715677  23.9858460
  42.6203585  50.8867741  24.8899412  44.5337772  51.2043810  23.9937663
  44.7716665  51.8454933  23.1449485  44.8428535  52.0378208  25.2238655
  45.8056688  52.5069809  25.0214386  44.1451216  52.8752375  25.2218652
  44.7613525  51.2808275  26.4082861  43.8245726  51.1970949  26.6007233
  45.4408169  49.9652433  23.8156247  44.9410963  48.8646936  23.5660768
  46.7991686  50.1106501  23.6856914  47.4659920  51.4201069  23.5120082
  47.7492046  51.9112539  24.4429541  46.8273497  52.0533800  22.8962159
  48.8028145  51.1083889  22.7086568  49.6795940  51.6937256  22.9856682
  48.6569929  51.1751509  21.6305184  49.0036869  49.7265148  23.1518388
  49.5620346  49.8516560  24.0795732  49.4893360  49.2415524  22.3050451
  47.6825571  48.9955235  23.4790754  47.3203278  48.6080933  22.5268221
  47.8059864  47.9120970  24.5478630  47.7879381  46.6663790  24.2810893
  47.9013348  48.1739616  25.8735418  47.9742670  49.1472673  26.1332750
  47.7931929  47.2677279  26.9596267  48.5260630  46.4617443  26.9222450
  48.0090475  48.0030203  28.3160949  47.3909569  48.9007235  28.3301497
  47.6135206  47.3423004  29.0875340  49.4193172  48.4194613  28.8034606
  49.2965889  49.0909529  29.6532464  50.2071619  47.2204256  29.2210078
  49.6927977  46.7051363  30.0321889  50.2599096  46.5391970  28.3717489
  51.1987209  47.5517702  29.5294261  50.2777195  49.1255617  27.7936411
  49.8307705  50.0569677  27.4460506  51.1836433  49.2475605  28.3873773
  50.4676819  48.4968281  26.9237494  46.3710070  46.5694427  26.9341516
  46.3687992  45.3209448  27.1228623  45.2666044  47.2922421  26.6364360
  45.4207134  48.2548523  26.3723683  43.8765717  46.8248987  26.5337205
  43.5619831  46.2939692  27.4321890  42.8370237  47.9695272  26.3377929
  42.9768848  48.4565258  25.3727174  41.8352795  47.5458336  26.2664080
  42.8983068  48.9329052  27.6444983  42.7084112  48.2238817  28.4503102
  43.8985205  49.3407297  27.7906370  41.8322086  50.0134945  27.4585128
  40.7799530  50.0389004  28.1103230  42.0419312  50.8819485  26.6161156
  43.7643862  45.7473278  25.4053855  43.1287909  44.7258520  25.5517054
  44.2693710  46.1186457  24.2484045  44.7091484  47.0229912  24.1543102
  44.5159292  45.2039433  23.0818510  43.5191917  44.9433899  22.7258587
  45.1785564  46.0101175  22.0029140  44.6790457  46.9308710  21.7015815
  46.1933804  46.2894106  22.2861648  45.2110434  45.1748228  20.8512259
  44.3261337  45.2182913  20.4815626  45.3053379  43.8957167  23.3965254
  44.7774506  42.8423023  23.0876303  46.5315437  43.9510918  23.9812636
  46.8739986  44.8818922  24.1721559  47.2627211  42.7642870  24.4204068
  47.3448944  42.2537851  23.4608507  48.5850334  43.1601381  24.9428582
  49.3061972  43.5736847  24.2378712  48.3626890  43.9623785  25.6464744
  49.4108582  42.0762920  25.6586528  48.8327885  41.6042948  26.4531016
  49.7677040  40.9513426  24.7207284  50.3571510  40.2003098  25.2466512
  48.8207674  40.5536795  24.3556523  50.3965282  41.2349367  23.8767767
  50.6812572  42.6287985  26.3149047  51.5502596  42.6735020  25.6584454
  50.4323626  43.5748339  26.7957091  50.9278584  41.9558001  27.1360970
  46.4271021  41.9332600  25.4033232  46.2684917  40.7675886  25.1654649
  45.9352922  42.5350475  26.5559840  46.0225725  43.5361290  26.6575837
  45.1815081  41.7706347  27.5496101  45.8298731  40.9791946  27.9255605
  44.8608637  42.7955294  28.6377478  44.3743706  42.1796513  29.3941283
  45.7629442  43.3084679  28.9712906  44.2075729  43.5448074  28.1906486
  43.9523840  41.1063004  26.9778323  43.5763788  40.0188875  27.3622322
  43.3141518  41.7660952  25.9111953  43.6076593  42.6953554  25.6458068
  42.1099234  41.2227345  25.3313375  41.4279652  40.9825134  26.1470175
  41.5110397  42.1961689  24.2369819  41.1981583  43.1384468  24.6867776
  42.2703314  42.3435593  23.4689617  40.2911234  41.6186428  23.5554457
  40.2583456  40.7222223  22.4893165  41.0946512  40.2997589  21.9521737
  38.9457440  40.4799986  22.2058892  38.6799693  39.8592663  21.4547873
  38.0561185  41.1228085  23.0284452  36.6583729  41.0981750  23.2225990
  36.0613346  40.4876137  22.5614214  36.0491562  41.7421579  24.2677259
  34.9773121  41.7281199  24.3994713  36.9007373  42.3803520  25.1665330
  36.5225434  43.0326748  25.9397435  38.3330107  42.4107981  25.0073957
  38.9791203  42.9821634  25.6573844  38.9376283  41.6987085  23.9716268
  42.4071980  39.8153234  24.7103548  41.8402767  38.8545275  25.0875449
  43.4273958  39.7922063  23.8763356  44.0468502  40.5777788  23.7375760
  43.8427639  38.5803604  23.1462312  43.0130863  38.1278801  22.6030970
  45.0012159  39.0338016  22.1707177  45.8482504  39.4036627  22.7485061
  45.3985834  38.1340981  21.7008829  44.5004845  40.1747227  21.1947918
  44.0985918  39.5565248  20.3920364  43.6143970  40.7426786  21.4783096
  45.6389236  40.9229040  20.5417728  46.8297911  40.8198214  20.7968640
  45.3466177  41.8997097  19.7432101  46.1421871  42.4622965  19.4773936
  44.4381857  42.2998333  19.5567989  44.3582487  37.5307298  24.1344333
  44.0379238  36.3302135  24.0200496  45.1237106  37.9721212  25.1834011
  45.1944256  38.9626479  25.3676844  45.6349277  37.2037125  26.2510014
  46.2500238  36.4210892  25.8068609  46.5745068  38.0375838  27.1144652
  46.0511637  38.9690566  27.3302913  46.7808628  37.4967647  28.5270238
  47.3501158  36.5708637  28.4448290  47.2566509  38.2293415  29.1789889
  45.8422661  37.2911787  29.0416789  47.9400492  38.2829046  26.4813304
  48.6806631  38.6810827  27.1749067  48.4006643  37.3659348  26.1137605
  47.7847815  38.9925170  25.6686568  44.4734001  36.4492059  26.9138694
  44.4703341  35.2088475  26.9304013  43.4247541  37.0976090  27.4951482
  43.4510708  38.1045747  27.4214888  42.2756910  36.4800835  28.2070088
  42.6960707  35.8628416  29.0009880  41.3867950  37.5163579  28.9305091
  41.9777346  38.0693269  29.6606541  41.1567354  38.2524157  28.1601834
  40.0146437  36.9692326  29.5688701  39.5973635  37.8080225  30.1260138
  39.3611503  36.5783954  28.7889361  40.1011467  35.8056331  30.5457211
  40.4971457  34.9356246  30.0219154  40.7723951  36.1762452  31.3204265
  38.6564231  35.4988241  31.0618615  38.4026098  36.3813424  31.6490936
  37.9578495  35.3035164  30.2482581  38.8112092  34.2855334  31.9413638
  39.1886735  34.5480657  32.8406405  37.9036856  33.8844538  32.1301532
  39.3637872  33.5487962  31.5266633  41.4805126  35.5895114  27.3334098
  41.2762880  34.4926739  27.7076626  41.0252428  36.1130953  26.1672974
  41.3125420  37.0442104  25.9016252  40.1709509  35.3745937  25.1518273
  39.2181015  35.1230359  25.6175613  39.8373222  36.2296486  23.8928175
  40.7633543  36.5273571  23.4009480  39.2851853  35.5751967  23.2183242
  38.8607264  37.6538706  24.4364023  39.8392320  38.3533597  25.0178981
  40.7441759  34.0005469  24.6228218  39.9601293  33.0606151  24.4784355
  42.0457554  33.7962747  24.6447945  42.6046467  34.6300411  24.7569489
  42.7594328  32.6480913  24.4309998  42.2746849  32.0514631  23.6582398
  44.1980314  33.0695724  23.9633226  43.9926577  33.7915897  23.1729960
  44.7259855  33.6372232  24.7295737  45.0817919  31.9085002  23.5262394
  44.5352507  31.0452175  23.1465745  46.0437202  32.3127913  22.4323726
  46.6908312  33.1230116  22.7683616  46.6109085  31.4256716  22.1505547
  45.3975391  32.5896502  21.5993643  45.8632660  31.3658857  24.5848656
  46.4742231  30.5501509  24.1983366  46.5719604  32.1158147  24.9362421
  45.3769493  31.0685635  25.5139494  42.8624392  31.7393041  25.6271291
  42.5757933  30.5467987  25.4684353  43.1750917  32.2865915  26.8151855
  43.2783318  33.2906795  26.7798018  43.2800674  31.5446258  28.1002998
  43.9521646  30.7051849  27.9221797  43.9020967  32.5025797  29.1212082
  43.4169245  33.4783411  29.0967178  43.8349199  32.1476293  30.1496053
  45.4098654  32.7622080  28.9750099  45.5563259  33.0322695  27.9292011
  45.8634949  33.8467169  29.9443364  45.5183840  33.6538601  30.9601140
  46.9401360  34.0028572  29.8767424  45.3469706  34.7556162  29.6357870
  46.2835646  31.5387607  29.3060088  45.8411789  30.8367467  28.5992050
  47.3631430  31.6746998  29.2416763  46.0158634  31.1931276  30.3044939
  41.9428539  30.9744096  28.6673307  41.9114923  29.9313378  29.2584586
  40.8012724  31.5494347  28.2246709  40.9926462  32.4285913  27.7657962
  39.4559193  30.9782577  28.2485890  39.2174506  30.8840084  29.3079996
  38.4626532  31.8839359  27.4702311  39.0321064  32.4009514  26.6978836
  37.6373744  31.2576151  27.1315098  37.9218483  33.0285335  28.3828044
  37.4367404  32.4792385  29.1896796  38.7066436  33.5061717  28.9693666
  37.1897340  34.1177535  27.5917912  37.9062819  34.8721313  27.2668743
  36.8140769  33.6546946  26.6793442  36.0910773  34.9088812  28.2767177
  36.2245822  34.9094415  29.3585134  36.1339569  35.9282470  27.8931093
  34.7345901  34.3775225  28.0118847  34.0120101  34.8881578  28.4989524
  34.5264292  34.4583726  27.0268798  34.6448946  33.4139132  28.3008671
  39.4250655  29.5336509  27.7137566  38.7575340  28.6898327  28.2299042
  40.1613045  29.2720914  26.6239691  40.5915737  30.0584459  26.1585498
  40.2958536  28.0143118  25.8933139  39.3907261  27.4072671  25.9117365
  40.5931425  28.2910752  24.3877268  41.5850973  28.7402511  24.4364214
  40.7818079  27.3326349  23.9040852  39.4587445  28.9427280  23.5792971
  38.2365894  28.2339025  23.4029746  38.0475950  27.2993326  23.9101887
  37.2647762  28.8460469  22.5830245  36.2871933  28.4133863  22.4295974
  37.6040721  30.0892401  21.9428968  36.7818069  30.7845902  21.1103415
  35.9763527  30.3315854  20.8502865  38.7939739  30.8184838  22.2723794
  38.9118719  31.8371511  21.9335246  39.7579002  30.1967645  23.0932331
  40.6830454  30.6918788  23.3489108  41.2858772  26.9494057  26.4991355
  41.2112188  25.7703876  26.1272907  42.2729301  27.4341035  27.3208761
  42.2770309  28.4392524  27.4196744  43.3302736  26.6310000  27.9387999
  43.6375666  25.8234644  27.2743034  44.5688295  27.5197411  28.1331134
  44.3408871  28.3755112  28.7685657  45.3610468  26.9118071  28.5700512
  45.0749969  27.9398656  26.8629360  45.7326508  27.3174691  26.5440035
  43.0125093  25.9212065  29.3469334  42.9898643  26.4804745  30.4398751
  42.8214645  24.5911813  29.2989492  42.9695225  24.2015219  28.3789754
  42.3996925  23.6801052  30.4323339  41.4344168  24.0825534  30.7395697
  42.1970320  22.2628522  29.8434186  42.1671772  21.5795279  30.6921124
  40.9870911  22.0314360  29.0500975  40.9040546  22.6508999  28.1570840
  41.0286283  21.0261941  28.6307287  40.0858402  22.2339988  29.6287274
  43.3224010  21.8883181  29.0313363  43.1543112  22.3256779  28.1934404
  43.3820963  23.6261320  31.5498829  42.8706741  23.5257220  32.6461959
  44.7111320  23.7760735  31.3327169  45.0173140  23.6512804  30.3783703
  45.7843590  23.8449383  32.3266649  45.8130836  22.8986311  32.8668404
  47.1540594  23.8760686  31.6219449  47.9252768  24.0175009  32.3791242
  47.4652815  22.5396252  30.9302187  47.5713778  21.6826534  31.5953803
  46.6475630  22.2287059  30.2800083  48.3309174  22.6479077  30.2767324
  47.1720409  24.9322033  30.6741476  48.0447721  25.3294373  30.6278610
  45.6795073  25.0983429  33.2179141  46.3069153  25.2331877  34.2522812
  44.8094463  26.0183430  32.8641939  44.3255568  25.9027815  31.9852185
  44.6423912  27.3382640  33.6559916  45.6721067  27.6369619  33.8524032
  44.0603971  28.4070921  32.7236938  44.6163511  28.3764935  31.7866349
  43.0240870  28.2071161  32.4513483  44.2008638  29.7769141  33.1635427
  43.1459856  30.5039287  33.6160517  42.1691370  30.0746465  33.7830305
  43.6270237  31.7084432  34.0452838  43.0679703  32.3795033  34.5524716
  44.9604607  31.9617605  33.6554766  45.8406878  33.0364680  33.9121222
  45.4485893  33.9780474  34.2672062  47.1963644  32.8735018  33.5396147
  47.9155684  33.6453938  33.7705612  47.5699139  31.6433382  32.9372001
  48.5914898  31.5854430  32.5916147  46.6991711  30.5064654  32.8710270
  47.0052910  29.5449686  32.4860430  45.3678417  30.6330585  33.2400703
  43.8248348  27.2152638  34.9008536  42.7160072  26.6375017  34.9342036
  44.2556143  27.7451015  36.0753655  45.1725006  28.1669092  36.0366321
  43.5480833  27.8253222  37.3247814  42.6324081  27.2340274  37.3214364
  44.4368982  27.2050405  38.4733343  45.2941036  27.8670549  38.5959721
  43.9105034  27.2314262  39.4274354  44.9315214  25.7238340  38.2414937
  45.2426195  25.6616449  37.1986842  45.7451534  25.6714344  38.9649296
  43.9552164  24.5690131  38.6274266  43.5488129  24.7431612  39.6237230
  43.1489038  24.5129871  37.8961134  44.7569084  23.2115817  38.5853410
  45.2162790  23.1939793  37.5970244  45.5937719  23.2391119  39.2831922
  43.8376188  22.0498443  38.7925935  43.2420349  22.2181869  39.5907426
  43.0847216  22.0457745  38.1193709  44.3528271  21.1811709  38.8008451
  43.1190586  29.2702007  37.5952339  43.9032793  30.0300407  38.1391692
  41.9571018  29.6688080  37.1010232  40.8929968  28.8697815  36.4755034
  40.5049801  28.1344104  37.1803260  41.3043737  28.4652972  35.5507016
  39.8309207  29.8231959  36.0136771  39.0324187  29.7537136  36.7523718
  39.4599771  29.5373607  35.0294018  40.5597639  31.1836648  36.0600662
  39.8826385  31.9977808  36.3185549  40.9741020  31.2213469  35.0525904
  41.5358353  31.0650897  37.1608472  42.3628330  31.7692685  37.0696926
  40.9634972  31.3715076  38.5879159  40.1312685  30.5564356  39.0466213
  41.3998508  32.4622035  39.2337370  42.3110485  32.7964592  38.9542913
  40.9257174  33.1061530  40.4462481  41.1431026  32.5514913  41.3590384
  41.4100647  34.5222640  40.4730606  42.4951172  34.6208930  40.4408550
  41.0333681  35.0603247  39.6031809  40.9372425  35.3285456  41.6967726
  39.8647952  35.1688313  41.8083429  41.6894436  34.9242067  42.8812361
  41.3981628  33.9119864  43.1616974  42.7578592  34.8172188  42.6937866
  41.4354324  35.5548143  43.7332392  41.3059378  36.8078876  41.4574194
  40.8171988  37.1906257  40.5614567  41.0324240  37.3719883  42.3490953
  42.3497295  36.9980907  41.2075758  39.4178605  33.1209993  40.3754902
  38.8493681  33.4414911  39.3634439  38.7387681  32.8304553  41.4877319
  39.2806935  32.7009344  42.3301315  37.2607064  32.7790117  41.6718006
  36.8150902  31.8778300  41.2506104  37.0162177  32.5223780  43.1677008
  37.6203299  31.6534615  43.4287262  37.3110318  33.3930111  43.7535191
  35.5505824  32.3136353  43.4878731  34.6314144  32.9197264  42.9045296
  35.2750564  31.4456844  44.4275236  34.3846202  31.4563870  44.9040842
  36.0401964  30.9735131  44.8876524  36.5374470  34.0629768  41.2199545
  36.8365598  35.1521778  41.7053699  35.5631399  33.9342475  40.2200174
  35.2765465  32.7844334  39.4384813  34.6042705  32.1160221  39.9764180
  36.2603521  32.4023867  39.1659641  34.5004058  33.3124399  38.2673025
  33.6461616  32.6950407  37.9894757  35.2401042  33.4866405  37.4858952
  33.9207482  34.6774983  38.6027861  32.9376984  34.6169448  39.0697384
  33.9380836  35.3930807  37.7807498  34.9008179  35.1759863  39.6383238
  35.6782103  35.8071804  39.2077971  34.1134810  36.0026813  40.6937361
  33.6628294  37.0335984  40.3337002  33.7774062  35.2863836  41.7986059
  34.1851926  34.3659568  41.8800068  33.2393932  35.9727383  42.9720783
  32.8031731  36.8893862  42.5751162  32.1359491  35.1127243  43.5889673
  31.7704821  34.3913269  42.8581333  32.5684738  34.5586538  44.4220495
  30.9367514  35.8239460  44.0553188  30.5139184  36.8416739  43.5229588
  30.2228832  35.0971246  44.8809767  29.2704940  35.3606534  45.0897932
  30.5894852  34.2025924  45.1734161  34.1892576  36.5714669  44.0655088
  33.7230968  37.2475934  45.0407887  35.5184007  36.3685656  43.8642359
  35.6796169  35.8310270  43.0244970  36.6043520  37.0690560  44.6245432
  36.8799472  36.6072512  45.5726385  37.9101062  36.9479179  43.7340021
  38.2577562  35.9151173  43.7103987  37.7563405  37.3960304  42.7523422
  38.8594532  37.6361465  44.5519781  39.0952492  37.0193052  45.2487659
  36.2578940  38.5291147  44.8965979  35.9278488  39.2261028  43.9492512
  36.5572095  38.9865518  46.0843945  36.6409898  38.2516432  46.7721415
  36.3190460  40.3336716  46.5485239  35.2771664  40.6361341  46.4431572
  36.6358662  40.5142021  48.0142069  36.3919997  41.5544271  48.2299852
  36.2237668  39.7465682  48.6691999  38.1354070  40.4743147  48.3626795
  38.8550997  39.3590117  48.5649109  38.4315205  38.3657503  48.5444736
  40.1700258  39.6727228  48.9401340  40.8691931  38.9444113  48.9689064
  40.4511499  41.0561037  48.8348484  41.5929604  41.9167519  48.8273096
  42.6309013  41.6200447  48.8596106  41.3879538  43.3332014  48.7547588
  42.2132683  44.0205002  48.8682175  40.0767279  43.9015627  48.5902500
  39.8751068  44.9614096  48.5405016  39.0373969  42.9291677  48.3701181
  38.0705857  43.3116865  48.0779600  39.1803622  41.5731049  48.5057735
  37.1549773  41.2719679  45.6158304  36.6965556  42.3888969  45.5336475
  38.2335281  40.8869791  44.9309492  38.5453606  39.9442482  45.1156807
  39.1275859  41.7865133  44.1345882  39.5110106  42.6262093  44.7142410
  40.4089880  40.9496880  43.7320948  40.0522184  40.1011086  43.1483746
  41.0836744  41.5520668  43.1237841  41.1783886  40.5181885  44.9756002
  40.5500507  40.1137972  45.7691717  42.1506643  39.4504833  44.5572758
  42.8026676  39.1740561  45.3858805  41.6403055  38.5289931  44.2771006
  42.6883650  39.7716308  43.6651754  42.1607637  41.5921831  45.5579662
  42.8733015  41.8256044  44.7668266  41.6301584  42.4627447  45.9435749
  42.7609348  41.2560987  46.4035082  38.4984064  42.5125456  42.9089212
  38.8760519  43.6166048  42.4533415  37.5967240  41.7780352  42.2303724
  37.3204517  40.8656502  42.5640249  36.7670441  42.3865604  41.2002039
  37.3974013  43.0695438  40.6307459  36.0178423  41.3742876  40.2905273
  35.3330398  40.8417940  40.9505272  35.4932022  41.9208479  39.5068669
  36.9020057  40.3446674  39.6534991  37.2004008  39.1238832  40.3339434
  36.8052459  38.9286399  41.3199139  37.8805208  38.0576754  39.7206855
  38.0280352  37.0936823  40.1847553  38.4592438  38.3303285  38.4596252
  39.1916037  37.3238802  37.9084468  39.8938966  37.6342583  37.3322082
  38.2824206  39.5413375  37.7919650  38.8061213  39.7732997  36.8763590
  37.4815559  40.5427599  38.3827066  37.2376895  41.4244127  37.8085828
  35.6767893  43.2730722  41.8163729  35.5021214  44.4334173  41.3958216
  34.9132371  42.8307724  42.7733660  35.1011229  41.9121790  43.1488466
  33.8627648  43.6441755  43.4231806  33.2271671  44.1288042  42.6820660
  33.1232285  42.6982832  44.3266296  33.8843274  42.1533298  44.8850727
  32.4482131  43.1995869  45.0202799  32.2352791  41.6381836  43.5830450
  31.2306428  41.8469429  42.6706791  30.7868218  40.5949497  42.3658562
  29.8896408  40.4678440  41.7782259  31.4618087  39.6592546  42.9856157
  31.3106084  38.6609125  42.9621840  32.4244618  40.3187037  43.7357807
  33.2021117  39.9129701  44.3658924  34.4054699  44.9417830  44.1190529
  33.7124968  45.9961605  44.0878534  35.6357670  44.9496984  44.6343565
  36.1124372  44.0632153  44.7182369  36.4569807  46.1324644  45.0799370
  35.8459830  46.5605068  45.8746529  37.7303267  45.5888319  45.7409191
  38.3003163  46.3834715  46.2223339  37.4070382  44.8124504  46.4343309
  38.3594775  45.1171970  44.9860477  36.8459201  47.1056557  43.9145279
  37.2740698  48.2323027  44.1128969  36.7152143  46.6188145  42.6716852
  36.3385940  45.6928110  42.5275469  36.9748616  47.4123669  41.3965940
  36.6054344  46.7856359  40.5849123  36.2119555  48.7985086  41.3501167
  35.1741242  48.6549139  41.6507578  36.6885257  49.4980574  42.0368576
  36.1761189  49.4843102  40.0185919  37.1620703  49.8355341  39.7142220
  35.8524561  48.7849951  39.2476797  35.2319598  50.6897068  39.9117875
  34.1881013  50.4239702  40.0786686  35.5667257  51.3024998  40.7487535
  35.3940201  51.4314413  38.5479760  34.7828126  52.3260784  38.6669517
  36.4587283  51.6097927  38.3973432  34.8769283  50.5509186  37.5249600
  34.8206663  51.0663319  36.6581893  35.5397034  49.8112392  37.3413801
  34.0066481  50.0873327  37.7435946  38.5330129  47.4040031  41.0670280
  38.8363218  48.0532265  40.0770712  39.4314528  46.7370033  41.8068266
  39.0511489  46.1901093  42.5660229  40.8772087  46.7031527  41.6085005
  41.2808180  47.7120209  41.5225077  41.5516806  45.9736204  42.8126669
  41.0602474  45.0023603  42.8696871  42.5672531  45.6977987  42.5287104
  41.5518379  46.6250467  44.1855669  40.5247450  46.8484449  44.4741297
  42.2945833  45.7735300  45.2890015  43.3547688  45.5759859  45.1306248
  42.2852612  46.3510990  46.2133551  41.8541002  44.7877312  45.4382563
  42.2939062  47.9157543  44.1001415  41.8296385  48.5452366  43.3409929
  42.3373938  48.3186626  45.1120043  43.3021355  47.7140188  43.7383747
  41.2288904  45.9702396  40.3347349  42.0239830  46.3163948  39.4431233
  40.5171061  44.8783636  40.1022100  39.8415685  44.5303679  40.7675362
  40.6455326  44.0036392  38.8731265  41.6467762  44.1269779  38.4603286
  40.5331564  42.5001144  39.3030167  39.5850062  42.2873402  39.7968197
  40.4239225  42.0084667  38.3363414  41.6764832  41.9825125  40.1761818
  41.7695570  42.6688433  41.0178423  41.3543844  40.5523062  40.4286385
  42.1281242  40.1521969  41.0838795  40.3912830  40.5255890  40.9383726
  41.3969707  40.0063944  39.4861627  43.1057978  42.0082283  39.4760561
  43.9246798  41.6835833  40.1180458  43.1570101  41.3177776  38.6341810
  43.3768368  43.0459929  39.2819405  39.5826459  44.4077301  37.8215671
  38.7774324  43.6056089  37.3039651  39.6642613  45.7169390  37.5085616
  40.3096342  46.2927198  38.0301690  38.6407685  46.5580797  36.9037700
  37.8994203  46.8321228  37.6543713  39.2458296  47.8421640  36.4242554
  40.1927567  48.0270529  36.9314480  39.4361734  47.7346706  35.3564000
  38.4207964  49.1136742  36.5223598  37.2743940  49.1034222  37.0982337
  38.8676333  50.1339960  35.9319687  37.8139567  45.8102560  35.8154845
  38.3012509  45.5477095  34.6936870  36.4786243  45.7822227  35.9240818
  35.7869744  45.8896065  37.1777630  35.5274701  46.9122744  37.4514580
  36.2964535  45.3794527  37.9952455  34.5076394  45.0866413  36.9772291
  33.6984992  45.4883814  37.5871444  34.6911573  44.0603113  37.2951388
  34.2511702  45.2055788  35.5166411  33.5941052  46.0617399  35.3638053
  33.6981010  44.3599415  35.1078510  35.5768561  45.4383469  34.8393559
  35.8764029  44.5504379  34.2825818  35.5151272  46.5228653  33.7599921
  35.1043272  46.2701464  32.6147723  35.8666849  47.7134800  34.1038394
  36.3728738  47.7754164  34.9756432  35.8002377  48.8371086  33.1513739
  34.8385096  48.7344313  32.6487446  35.8009505  50.1232815  33.9523363
  36.7284989  50.2610540  34.5080090  35.8077431  51.0487938  33.3765960
  34.6941829  50.1976013  34.7768092  33.9303446  49.9762726  34.2390680
  36.8798161  48.9600706  32.0480633  36.8429518  49.7737789  31.1222553
  37.9053235  48.0674314  32.1017766  37.7604365  47.3417902  32.7892065
  39.0013170  47.9977560  31.0877204  38.5894465  48.2227612  30.1039338
  40.1805019  49.0000343  31.3624358  39.8335409  50.0173378  31.1812949
  40.7797432  48.9687872  32.7988124  40.7865191  47.9197168  33.0946374
  41.8157196  49.3040419  32.8484201  40.2285576  49.5870447  33.5073686
  41.3226748  48.6736917  30.5154300  41.0903788  49.0376472  29.6580076
  39.5748806  46.5254879  30.9515977  39.6964192  45.9436655  32.0001435
  40.0169182  46.0085058  29.7754288  39.7591877  46.5526581  28.4129453
  40.5428982  47.2366190  28.0872059  38.7856722  47.0425034  28.4333563
  39.7251272  45.3394222  27.4574590  40.2821779  45.6167746  26.5625477
  38.6692357  45.0706768  27.4262571  40.6938314  44.3070316  28.1697726
  41.7098951  44.5417118  27.8525138  40.3703403  43.3051586  27.8874564
  40.5945730  44.6252298  29.6597433  39.9881721  43.9420509  30.2544284
  41.9687271  44.3635750  30.3056860  42.3676395  43.2329655  30.3059244
  42.5963020  45.3569078  30.9694719  42.1488476  46.2621021  30.9920120
  43.8707638  45.0587845  31.7170548  44.4621801  44.5715189  30.9418797
  44.6527815  46.3570166  32.1193242  45.6578112  46.0696650  32.4282861
  44.8133135  47.3195648  30.9682989  43.8672638  47.7113867  30.5947089
  45.3191233  48.2281160  31.2951040  45.4028273  46.7885876  30.2208757
  44.0108585  47.1315956  33.2084322  44.4849586  48.0989265  33.3745980
  42.9589176  47.3284435  33.0016184  44.1950893  46.5411282  34.1059327
  43.8176346  44.1147900  32.9049587  44.8589659  43.6182070  33.3284903
  42.6472855  43.7016106  33.4211922  41.7783499  44.0022278  33.0032492
  42.5144672  42.9266405  34.6451998  42.7080154  43.4797955  35.5642533
  41.0174465  42.5926828  34.9408221  40.9544277  42.2566223  35.9758067
  40.5478621  43.5738325  35.0111008  40.3953695  41.7793274  33.8902497
  40.0031471  42.1870804  32.5816917  39.4236994  41.0796261  32.0242572
  38.9527869  41.0462379  31.0529041  39.5850348  40.0379848  32.8589463
  39.2294312  39.0999937  32.7413702  40.1448059  40.4304075  34.0397501
  40.3756809  39.7975063  34.8838663  43.2963467  41.5872622  34.6077871
  44.0107489  41.2547112  35.5298901  43.1953526  40.7721710  33.5259271
  42.7590656  41.0999155  32.6760244  43.9228630  39.4841886  33.3963299
  43.5849762  38.7637591  34.1412592  43.6221838  38.8004565  32.0443273
  42.5463963  38.7535882  31.8752265  44.2236185  39.6559000  30.9216595
  44.1780806  39.2001176  29.9325752  43.6434412  40.5671835  30.7765436
  45.2559710  39.9782252  31.0574961  44.0823126  37.3355985  31.8181276
  43.7699699  37.0292091  30.8197951  45.1673794  37.3399258  31.7146349
  43.5599947  36.3093472  32.8633499  42.5116253  36.5207911  33.0738688
  43.7632322  35.2924681  32.5275612  44.0344000  36.5743947  33.8082266
  45.4475546  39.6178722  33.6832047  46.1079979  38.7467885  34.3118572
  46.0254908  40.7775688  33.2526636  45.4655504  41.4581871  32.7593827
  47.3976040  41.2324953  33.4857249  48.1056070  40.4531384  33.2038665
  47.7513456  42.4946213  32.6111341  47.1580362  43.3554554  32.9194331
  48.7905788  42.7512598  32.8166366  47.5195122  42.5189304  31.0509348
  46.4493465  42.6959229  30.9435749  48.3331108  43.6487484  30.4311967
  48.3991003  43.7014914  29.3444705  47.8810024  44.5990849  30.7150269
  49.3776369  43.5617733  30.7303739  48.0401373  41.2346888  30.2654195
  47.7370167  41.3060427  29.2208505  49.1160011  41.0601282  30.2532625
  47.6079702  40.3200531  30.6713390  47.7268314  41.4793396  34.8922825
  48.8853693  41.2218666  35.2460980  46.7564106  42.0471668  35.7164860
  45.8456326  42.1980619  35.3068399  46.8425131  42.1984243  37.1599150
  47.8298855  42.5458527  37.4640536  45.7584000  43.2049751  37.6737475
  44.7819328  42.7743006  37.4520779  45.8391476  43.4067488  38.7418604
  45.9597492  44.6132469  37.0316458  46.9724941  44.9575615  37.2411871
  45.8484936  44.5654297  35.9483933  44.9362850  45.6414938  37.4863052
  43.9264870  45.2398205  37.4021745  44.9946308  45.8462620  38.5553098
  45.0936842  46.8759680  36.7690110  45.9866571  47.2739172  36.5153718
  44.0827560  47.7445459  36.5531921  42.8667212  47.4650908  37.0018125
  42.7283764  46.7245770  37.6745725  42.1766138  48.1982613  36.9223666
  44.3452215  48.8769436  35.9686017  45.3047895  49.1046858  35.7507396
  43.6723185  49.6232939  36.0699391  46.7134237  40.9617376  37.9399920
  47.2508717  40.8293438  38.9867735  45.8850145  40.0274229  37.3867774
  45.2383661  40.2310562  36.6381240  45.8160734  38.6350012  37.8778529
  45.5298996  38.6851335  38.9284205  44.7256613  37.7554560  37.2052550
  44.8645878  37.8676963  36.1299849  44.8973560  36.7180610  37.4923682
  43.2890892  38.1519008  37.5199747  43.1271935  37.9427361  38.5773969
  43.2484245  39.2304730  37.3678970  42.3024082  37.2964120  36.7081952
  41.2709045  37.8243208  36.3767600  42.4266243  36.0304070  36.5037060
  47.1281576  37.8938770  37.7814293  47.7191257  37.5104904  38.7565732
  47.7004194  37.8894234  36.5691590  47.1938896  38.2877231  35.7914138
  49.1284847  37.4912906  36.3676023  49.1996145  36.4385319  36.6409898
  49.4878721  37.6400185  34.8895478  49.3633509  38.6539412  34.5093393
  50.9687233  37.1743059  34.5882511  51.1614132  36.1937213  35.0234818
  51.1404991  36.9598246  33.5334516  51.6547537  37.9455996  34.9383497
  48.5107279  36.7947435  34.0683341  48.7514544  35.7443094  34.2318511
  47.4756432  36.9099903  34.3899155  48.5388088  36.9468737  32.5609660
  47.7032471  36.3266206  32.2365808  48.3722734  37.9684782  32.2193670
  49.4170618  36.4633369  32.1332240  50.0789070  38.2651329  37.2140145
  50.8827972  37.6516557  37.9576778  50.0125599  39.6343946  37.2765326
  49.5537901  40.0428915  36.4748096  50.8540726  40.4564238  38.1329250
  51.8385124  40.2371550  37.7195263  50.6439304  41.5200853  38.0208731
  50.8655119  40.1434040  39.6332645  51.9325018  40.1726818  40.2518129
  49.6892548  39.7923064  40.2133322  48.8835669  39.9965787  39.6395397
  49.4495535  39.4713426  41.5755463  50.2387857  40.0109339  42.0990515
  48.0474377  40.0049257  42.0651293  47.3690653  39.7970366  41.2376690
  47.6317739  39.4378853  42.8980732  47.7983570  41.4399481  42.5450802
  48.3327389  42.1139240  41.8755245  46.3742828  41.8605328  42.3436117
  46.3474274  42.9445314  42.4546719  45.9969473  41.4854097  41.3922977
  45.7448101  41.3623381  43.0809450  48.2388783  41.8173265  43.9537716
  47.6793194  41.2699652  44.7123051  49.2994738  41.5920353  44.0655041
  47.9715300  42.8578329  44.1380548  49.6618176  37.9817057  41.7804670
  49.7738266  37.5388122  42.8975487  49.8697662  37.1516371  40.7442617
  50.0208378  37.5668454  39.8360276  49.9317741  35.6670618  40.7430744
  50.0600004  35.4657269  39.6795321  51.1759567  35.0209427  41.4325333
  51.2030125  35.3724909  42.4639320  51.0486650  33.9397407  41.4864588
  52.4565601  35.3890586  40.5939102  52.4038267  34.9971938  39.5781541
  52.5320148  36.4762211  40.6162357  53.6462450  34.7822952  41.3407803
  53.5757494  35.1572967  42.3618078  53.5896921  33.6940408  41.3653946
  54.9561977  35.0839710  40.7170248  55.4630709  34.2826343  40.3691149
  55.6239271  36.1837745  40.7261038  55.1722193  37.2789168  41.2452698
  54.2985249  37.3611808  41.7452621  55.5992508  38.1543660  40.9781837
  56.8087244  36.3073301  40.1304865  57.0329714  35.5932665  39.4523072
  57.2801065  37.2005272  40.1204014  48.6217451  35.0069213  41.2200403
  48.6526442  33.8784432  41.8211079  47.4889803  35.7283187  41.0402966
  47.5699568  36.5709352  40.4893494  46.1488628  35.1184177  41.2956095
  46.0864544  34.6655369  42.2851038  45.1165247  36.3089871  41.3978481
  45.1361132  36.8094134  40.4297113  44.1533566  35.8239365  41.5564108
  45.4698133  37.2347999  42.5270367  46.5406656  37.2591043  42.7289772
  44.8682642  38.5358191  42.0301962  45.2236366  38.8896871  41.0624218
  43.7973356  38.3904934  41.8884230  44.9794340  39.3454027  42.7515221
  44.9128628  36.9667864  43.8493824  45.3000879  35.9870434  44.1291237
  45.2022457  37.7659154  44.5318460  43.8386154  36.7968559  43.7771320
  45.7125378  34.0562844  40.2622414  45.0198364  33.2215524  40.6859446
  46.1186695  34.1120172  39.0291643  46.6631842  34.9249816  38.7787890
  45.6928301  33.0648136  38.0371904  45.3364134  32.1641326  38.5370326
  44.5217037  33.4330773  37.0879054  44.8295546  34.1682601  36.3443780
  44.3145037  32.5510669  36.4819098  43.4208870  33.9958310  37.7932882
  43.0157518  34.7187495  37.3086667  46.8437672  32.6112771  37.0884800
  47.7753496  33.3615518  36.7075086  46.9080114  31.2555361  36.8840098
  46.1387205  30.7240415  37.2658539  48.1506443  30.5980253  36.4795136
  48.7648869  31.2306976  35.8387852  49.1273022  30.4159784  37.7026463
  50.1252890  30.0822711  37.4184489  49.3325424  31.4043689  38.1138253
  48.5020494  29.5810938  38.7151170  47.6971817  29.9828124  39.7631168
  47.1118164  28.9223003  40.2820826  46.3815546  28.9379525  41.0776186
  47.6406622  27.8240252  39.8224807  47.2615671  26.9171095  40.0546265
  48.4945297  28.2006645  38.7695861  48.8911009  27.4599361  38.0910158
  47.9489565  29.2981529  35.7061625  46.9919729  28.5910821  35.8981204
  48.8401747  29.0274620  34.7731853  49.4575262  29.7793484  34.5018125
  49.0993547  27.7062607  34.1606236  48.1417847  27.3464990  33.7841487
  49.9878597  27.8963900  32.8638053  50.9755087  28.2994461  33.0878592
  49.5443296  28.5503817  32.1130228  50.2662134  26.2720704  32.1213365
  49.6580505  26.6641712  35.0947094  50.9176588  26.6360426  35.4162264
  48.8374329  25.8229876  35.6068969  47.8679705  25.9657192  35.3621888
  49.2671680  24.7253609  36.5274501  49.6976614  25.1106167  37.4517632
  47.9936695  24.0697670  36.9812942  48.3829784  23.3499956  37.7013421
  47.3838949  24.7663665  37.5566411  47.2303104  23.3731198  35.9966779
  46.7036247  23.9904666  35.4837608  50.1897955  23.6662507  35.9299231
  50.7087708  22.7773190  36.6193247  50.3119373  23.5864425  34.6011186
  49.9685192  24.3337774  34.0148973  51.2063408  22.6163363  33.9192629
  50.9929085  21.6164351  34.2970848  51.0010767  22.7048922  32.3665285
  49.9472857  22.5762701  32.1193671  51.2632179  23.6941695  31.9914150
  51.8147373  21.6063595  31.7007208  51.6143608  20.2531099  31.8939638
  52.3549032  19.6780956  31.0172153  52.5455523  18.6205554  30.9092236
  53.0642271  20.5963755  30.3597665  53.7029505  20.3019834  29.6348763
  52.7873755  21.8419218  30.8024979  53.0112314  22.8166819  30.3949022
  52.6390696  23.0526853  34.2787671  53.4872150  22.2431993  34.5490074
  52.8104019  24.3641520  34.1939473  52.1239042  24.9606061  33.7545562
  54.0506506  25.1025391  34.3910646  54.8923874  24.6958351  33.8305569
  53.9429331  26.4916205  33.7570882  54.7487116  27.1280694  34.1228104
  52.9705238  26.9600534  33.9090276  54.2184734  26.3715196  31.8743920
  54.3744850  25.1701403  35.9168816  55.4960203  24.7972369  36.3365912
  53.3320999  25.6180930  36.6648960  52.4524689  25.8805704  36.2436390
  53.5187292  25.8285880  38.1326437  54.2403269  25.0953245  38.4928179
  54.2787647  27.1468019  38.4122324  55.2897501  27.0596170  38.0142283
  53.6618710  28.4939742  37.9176211  53.5275078  28.3630657  36.8438864
  52.7343941  28.7691474  38.4197974  54.4911575  29.1887307  38.0506301
  54.5889282  27.3395729  39.8710871  55.1473331  28.2532287  40.0748682
  53.6859846  27.5828314  40.4311037  55.2031803  26.5626645  40.3262854
  52.2019100  25.6758118  38.9594817  51.4559984  26.6324925  39.1874003
  51.9028091  24.4595718  39.4845772  52.5393343  23.2399726  39.1599870
  53.4990215  23.2108474  39.6759772  52.7016544  23.2222652  38.0822825
  51.6517448  22.0437074  39.5447206  52.0507050  21.4224148  40.3465509
  51.2568617  21.5182161  38.6752248  50.3951168  22.7285314  40.1208591
  49.9748278  22.2799802  41.0210037  49.6769667  22.7025795  39.3012929
  50.7663870  24.1913819  40.2784109  49.9171495  24.7800565  39.9314642
  50.9805155  24.6026206  41.7078543  49.9962568  24.4724917  42.4318266
  52.2469234  24.9684143  42.0898151  52.8699541  25.2938080  41.3645172
  52.7050781  25.3748417  43.3853054  52.2863531  24.7650218  44.1858673
  54.2101336  25.2192497  43.4287167  54.4949007  24.4536948  42.7069616
  54.7574377  26.0991883  43.0906677  54.6426725  24.8773527  44.8347664
  54.1255713  25.5673432  45.5015659  54.3856096  23.8475776  45.0829315
  56.1612225  25.1160550  44.8706341  56.7674255  24.3983603  44.3178797
  56.4331865  26.1306977  44.5797062  56.5230608  24.9605227  46.3989925
  57.2964811  25.7043672  46.5903425  55.6879807  25.2368093  47.0427418
  57.1449614  23.6625409  46.6569185  56.4909792  22.9044008  46.5241528
  57.9649687  23.4352016  46.1128569  57.4736643  23.6455774  47.6117802
  52.3154974  26.8468237  43.7484550  53.1541348  27.6376224  44.2164373
  51.0382986  27.1664810  43.5885572  50.3957605  26.4577389  43.2646275
  50.4532766  28.5076165  43.9124393  50.9591103  29.0115857  44.7359943
  50.3927803  29.3917513  42.6290321  50.0506926  28.7120581  41.8485880
  49.5996380  30.1160479  42.8145933  51.7449570  30.0666308  42.2592211
  52.5257206  29.3073845  42.3045683  51.6264725  30.6428027  40.8551216
  50.6926918  31.2041736  40.8233023  52.4625158  31.1743736  40.4006243
  51.5939140  29.7671652  40.2068186  52.2640038  31.1384583  43.2765055
  53.3088827  31.2515068  42.9874659  51.7333746  32.0754647  43.1075287
  52.1659088  30.7576227  44.2930889  49.0089417  28.3433437  44.4254303
  48.3043575  27.3771000  44.0185499  48.5586739  29.2098165  45.3080082
  49.0574503  30.0588107  45.5328083  47.1650934  29.1936255  45.8515406
  46.3676453  28.9508224  45.1492405  47.1781492  28.1255174  46.9621325
  47.3859644  27.1174669  46.6033173  47.8955364  28.5558105  47.6609182
  45.8201408  27.8808784  47.6256132  46.0276651  27.0860076  48.3420038
  45.5865669  28.7222719  48.2779932  44.5726442  27.5747156  46.7195082
  44.7841454  26.9622898  45.6547785  43.4910345  27.9590988  47.2198629
  46.9508076  30.5963850  46.4021969  47.8131962  31.0617733  47.1771002
  45.8069754  31.2428832  46.0620070  44.8618460  30.8681703  45.0403595
  44.2178059  30.0609088  45.3891277  45.4671764  30.6518817  44.1600800
  44.0099192  32.0916748  44.8670626  43.1634378  32.0506668  45.5525446
  43.6451864  32.1442866  43.8412380  44.8447847  33.2926393  45.2445698
  44.2097950  34.1155291  45.5728054  45.5625486  33.4811521  44.4462156
  45.6086063  32.6884341  46.3995314  46.5799761  33.1752586  46.4864016
  44.9661875  32.9610109  47.7728748  44.6578074  32.1006680  48.6072683
  44.7877979  34.2144227  48.0173969  45.1815462  34.9103093  47.4003029
  43.7440586  34.7544241  49.0144300  44.1755342  34.4530797  49.9689579
  43.5639715  36.2442303  48.9317799  44.5888567  36.6147447  48.9526272
  42.8269434  36.7074871  47.6805639  41.7401028  36.6245174  47.6801109
  43.0463314  37.7737451  47.6251411  43.1925154  36.1836982  46.7973328
  42.9103518  36.8254924  50.1821566  41.8678379  36.5078259  50.2010250
  43.3657169  36.3035107  51.0237551  42.9618883  38.3100724  50.4148626
  42.2078991  38.4948254  51.1800241  43.9474344  38.5328484  50.8237267
  42.8073359  38.9336300  49.5342970  42.3487568  34.0328431  48.8315058
  41.8638754  33.9579844  47.6606894  41.6081953  33.6972976  49.9505901
  42.1774244  33.5051560  51.1957550  42.2689867  34.4964719  51.6396141
  43.1623840  33.0458736  51.1119556  41.1786270  32.6636577  51.9389582
  41.2224531  32.9114580  52.9995155  41.3995552  31.5964556  51.9197798
  39.8377776  33.0814528  51.2787580  39.3237281  33.9344549  51.7217493
  39.1379714  32.2461772  51.3050175  40.1646280  33.4076071  49.8841381
  40.0078583  32.5773668  49.1954994  39.1761875  34.4642663  49.2646885
  39.5131230  35.5555820  48.9288568  37.9503322  34.0444565  48.9717579
  37.6797557  33.0923915  49.1729164  36.9573450  34.7014928  48.1032038
  37.3348427  34.8406553  47.0901728  35.7804775  33.7166739  47.9161930
  35.1209426  34.0216017  47.1037054  36.1870623  32.7435374  47.6408911
  34.9136448  33.4826088  49.1447258  34.6880603  34.3400359  49.7787857
  33.9529276  33.0752802  48.8297510  35.3341079  32.4031186  50.0892115
  34.5707989  31.9715691  51.0107183  36.4630771  31.9203973  49.9668598
  36.4605713  36.0321212  48.6512566  35.8650565  36.8481660  47.9433680
  36.7193007  36.3004446  49.9645519  37.2623897  35.5964160  50.4436207
  36.5384865  37.5249338  50.7423544  36.7043638  38.4228969  50.1471663
  35.0470424  37.5300932  51.1677170  34.4256663  37.0322871  50.4232836
  35.0505400  36.9014287  52.0581532  34.3448353  38.8224721  51.4548635
  34.2048788  39.5164227  52.6021576  34.7873473  39.2042422  53.4563684
  33.4450030  40.6683445  52.5012589  33.0645347  41.1591864  53.2977629
  33.0155396  40.7426310  51.2433767  32.1417785  41.6303158  50.6275082
  31.7594647  42.4608040  51.2024212  31.7768073  41.4670849  49.2772198
  31.1167669  42.1377611  48.7471771  32.4179125  40.4618025  48.5316849
  32.1870041  40.3533983  47.4822426  33.3446336  39.5728326  49.0971041
  33.7990022  38.8415909  48.4449959  33.5403466  39.6108246  50.5077076
  37.3943543  37.4975157  52.0786095  37.7475071  36.3641238  52.3860836
  37.7784920  38.5839748  52.7783203  37.6126266  39.9838567  52.2349501
  36.6664553  40.4572344  52.4971914  37.5782490  39.9770761  51.1455107
  38.9087582  40.6510639  52.7467728  38.8274956  41.7233181  52.9250336
  39.7969079  40.4242325  52.1569920  39.1053295  40.0299978  54.1269302
  38.5747528  40.6765699  54.8258781  40.1576567  40.0365210  54.4109488
  38.4227800  38.6235285  54.0714169  39.1944242  37.8714442  53.9069700
  37.4759722  38.2406044  55.2218485  36.3030314  38.5304070  55.2049780
  37.9938436  37.7292180  56.3316727  39.3564439  37.4562716  56.5501451
  39.8284292  38.4313703  56.4296722  39.8409915  36.7870593  55.8391809
  39.4872308  37.0810890  58.0277395  40.3562593  37.6170516  58.4093571
  39.6664834  36.0062051  58.0520868  38.1703281  37.4079275  58.7464142
  38.2529545  38.2340407  59.4526768  37.8129005  36.6219354  59.4116688
  37.2134924  37.7921796  57.6197481  36.4192152  37.0505595  57.5347519
  36.6028810  39.1333580  57.9997778  37.2358799  40.2047157  57.7111912
  35.4626727  39.1813278  58.6760950  35.0618219  38.2756233  58.8738775
  34.7898507  40.3238630  59.2845058  34.5710683  40.9409571  58.4130526
  33.4535885  39.8118258  59.9544430  32.9729581  39.1003990  59.2828989
  33.8115597  39.2772770  60.8343363  32.5343442  40.9435463  60.3012514
  33.0726457  41.7328405  60.8259869  32.0296001  41.6011953  58.9936447
  31.3538456  42.4404049  59.1585159  32.8268051  42.0099115  58.3727360
  31.5768027  40.7999563  58.4096050  31.3651729  40.3960657  61.1643600
  30.9868383  39.4546032  60.7660913  31.7634082  40.0431824  62.1156645
  30.5842185  41.1557817  61.1320543  35.6100726  41.2311363  60.2100420
  35.5012035  42.4463129  60.1487827  36.5267444  40.6575108  61.0484982
  36.7298770  39.6682024  61.0378599  37.2988510  41.4969063  61.9455194
  36.6129303  42.1963024  62.4234962  37.9159832  40.6146240  63.0308294
  38.7521267  40.0079012  62.6831913  38.2320857  41.0555410  63.9762259
  37.1323037  39.9637723  63.4185743  38.3942533  42.1896458  61.0515308
  38.8892460  43.2732630  61.3598871  38.7704039  41.5651512  59.9401855
  38.4454560  40.6230688  59.7759104  39.9058008  42.0191336  59.0926600
  40.6651354  42.5778389  59.6398020  40.5969572  40.7761145  58.6501503
  39.9230075  40.2073765  58.0095053  41.4986753  41.0901403  58.1244183
  40.9120512  39.9731946  59.7152853  41.4628839  40.5441046  60.2558804
  39.4365883  42.8906584  57.9227448  40.2555037  43.3432770  57.1002531
  38.1180978  43.2631779  57.9044914  37.5325346  42.9773760  58.6761999
  37.6303291  44.1583490  56.7929840  38.4736228  44.7977924  56.5320826
  37.4518609  43.4131813  55.4837322  37.3126316  44.1206932  54.6663332
  38.3475614  42.8115845  55.3291225  36.1447644  42.1596670  55.6428242
  36.7896700  41.3581038  56.4951706  36.2553406  44.9392462  57.0092297
  35.8392787  45.7200766  56.0998201  35.4984474  44.5851707  58.1033325
  35.7467222  43.8249302  58.7201691  34.2185783  45.2653646  58.4364843
  33.8971138  44.7606993  59.3475676  34.4929433  46.2815666  58.7196159
  33.1737995  45.1803064  57.3530817  32.4375772  46.1549091  57.1399450
  33.1658912  44.1268396  56.5088129  33.8158393  43.3628988  56.6273975
  32.0369864  43.8940859  55.5629349  31.1454511  44.3873310  55.9501982
  32.2702265  44.6390867  54.2053986  32.3068953  45.7196569  54.3437099
  33.5972691  44.2077732  53.4556913  33.7657237  44.8627996  52.6008987
  34.4500232  44.2632055  54.1323328  33.4373045  43.1933784  53.0902958
  31.0705471  44.3997526  53.1877136  30.9495568  43.3822250  52.8161049
  30.1423025  44.7515392  53.6379480  31.2524438  44.9729776  52.2786331
  31.7545843  42.3846006  55.4672003  32.6646590  41.6314077  55.1387644
  30.5194521  41.9011593  55.8300638  29.4425607  42.5154257  56.6136789
  28.6635089  42.8761625  55.9420776  29.7947717  43.1057024  57.4596214
  28.7472987  41.2821102  57.3348665  27.7457547  41.6326523  57.5841331
  29.3150496  40.9164762  58.1904793  28.7829876  40.1747322  56.2044096
  27.8997684  40.1088858  55.5690432  28.8137364  39.1742039  56.6358089
  30.1501775  40.5610991  55.4859400  30.8832145  39.8858738  55.9273338
  30.0554490  40.3654003  53.9923382  29.7576356  41.3563299  53.3482695
  30.1268315  39.1111207  53.3899593  30.8101177  37.9718280  54.0090466
  30.1268625  37.3799014  54.6180534  31.6214919  38.3307004  54.6422768
  31.2006283  37.0340300  52.8829622  31.1694622  35.9497666  52.9902315
  32.2500658  37.1859479  52.6305628  30.1660061  37.4926972  51.8264198
  29.1808653  37.0323467  51.9017410  30.5479407  37.2283578  50.8403397
  30.0061774  38.9454842  51.9386196  30.8490252  39.4024348  51.4200544
  28.6069012  39.4892454  51.3435793  27.5429916  38.8556433  51.4720869
  28.8146257  40.5687857  50.6007624  29.7937679  40.8011484  50.5147600
  27.8085303  41.3771963  49.9198675  28.3858824  42.2104216  49.5192432
  27.2388411  40.4953241  48.7501335  26.7652178  39.6362352  49.2252636
  26.4769125  41.0330248  48.1858253  28.3080935  39.8785353  47.7976942
  28.9219069  40.5884361  46.7677069  28.5315251  41.5837288  46.6147518
  29.9566960  40.0496054  46.0078859  30.5272079  40.6425381  45.3083515
  30.3662729  38.7092590  46.2528086  31.1870337  38.2509208  45.7211304
  29.7212076  37.9331541  47.1358538  30.0328445  36.9080281  47.2714901
  28.7357783  38.5543489  47.9959488  28.2312989  37.9312921  48.7196302
  26.7020702  41.9685745  50.8202028  25.5615592  42.2372866  50.4601955
  27.0063782  42.2182465  52.0590258  27.9705596  42.1139526  52.3411179
  25.9842896  42.7187538  53.0612803  25.0346684  42.8987217  52.5573635
  25.7220483  41.7110872  54.2201662  26.6206098  41.5603113  54.8184633
  24.9714518  42.1497011  54.8776817  25.3028226  40.3200150  53.7837553
  24.6772766  40.4233551  52.8971243  26.1660933  39.7488093  53.4423018
  24.6211672  39.4369435  54.8661375  25.1574135  38.4847665  55.3303576
  23.4199595  39.7154546  55.2205324  23.1223202  39.1046762  55.9678364
  22.9217362  40.5213213  54.8705959  26.5245581  44.0296268  53.6561394
  27.6902413  44.1378927  54.0876770  25.5880404  44.9720287  53.9288425
  24.6532869  44.8519325  53.5656500  25.8692002  45.9765720  54.9362373
  26.8175554  46.4296246  54.6473312  24.6246815  46.9266462  54.9592495
  24.3490434  47.3580599  53.9969540  23.7903571  46.3416052  55.3461933
  24.7200179  48.0225325  56.0037661  24.7274470  47.5778770  56.9989157
  25.6871152  48.5194683  55.9270954  23.5234880  48.9409494  55.8418036
  23.5920119  49.3356609  54.8280907  22.6312804  48.3153629  55.8683681
  23.5677457  50.0728798  56.8532276  23.9298058  49.7529459  57.8302908
  24.3187308  50.8094788  56.5676546  22.3109913  50.7850170  56.9365931
  22.1399260  51.4156628  56.1664534  21.4871073  50.2201557  57.0857620
  22.3278332  51.3904905  57.7448130  26.0700989  45.4668140  56.3603783
  25.2385855  44.6418762  56.7827320  27.0791817  45.8736086  57.1442461
  28.1649160  46.9398212  56.8238878  27.7298141  47.8314257  56.3724232
  28.8552094  46.4572859  56.1319637  28.8662457  47.2958803  58.0976295
  28.3876276  48.1641245  58.5505962  29.9158812  47.5568485  57.9624891
  28.6374044  46.0279512  58.8940382  28.8463426  46.1513519  59.9566841
  29.4441056  45.3879118  58.5367107  27.2981620  45.3912878  58.5077477
  27.3723602  44.3054724  58.5677195  26.2198186  45.9240389  59.4692373
  25.7889247  47.0577145  59.4620657  25.8849335  45.1007128  60.4756069
  26.4070773  44.2436409  60.5891609  24.7507954  45.3088236  61.4103222
  23.8186908  45.6098223  60.9321117  24.5257282  43.9089918  62.0167637
  24.5079780  43.1283903  61.2562037  25.3037810  43.5636473  62.6975489
  23.2792497  43.6245108  62.8590584  23.4036350  44.0879774  63.8377523
  22.0196486  44.2461586  62.2462320  22.1538901  45.3180647  62.1009541
  21.8673277  43.7828684  61.2714195  21.2042713  44.1000557  62.9546928
  23.2175779  42.1271420  63.0732346  22.8306293  41.6058254  62.1976757
  24.0925169  41.7052269  63.5677767  22.4463177  41.9980907  63.8325739
  25.0109458  46.3215637  62.5562096  24.0975499  46.8139744  63.1983662
  26.2701273  46.6852570  62.6418686  26.9383407  46.1180496  62.1400023
  26.7442131  47.9106283  63.3244228  25.8994102  48.5407448  63.6025763
  27.3969626  47.5399017  64.7005081  26.7198372  46.8345881  65.1823235
  28.8289785  46.9306040  64.6423912  29.5966911  47.6313400  64.3142462
  29.0715408  46.6621828  65.6706095  28.8791084  46.0605431  63.9877224
  27.5474453  48.7440300  65.4960680  26.7724967  48.7464046  66.0626793
  27.7987647  48.6346388  62.4072027  27.9324627  48.1715775  61.2652683
  28.2763076  49.8249149  62.8120089  28.0468464  50.1483297  63.7409067
  29.0739369  50.7193232  61.9308376  28.4618187  50.8763790  61.0427237
  29.3346000  52.0547247  62.5948763  29.7496700  52.7718067  61.8866253
  28.4458447  52.3297501  63.1628370  30.2671719  51.8836927  63.6788464
  30.1967430  52.7452421  64.0964222  30.3261852  49.9921846  61.3421822
  30.9602547  49.3163872  62.1290159  30.7218957  50.3545475  60.0753307
  29.9625611  50.9767103  59.0302038  29.8051262  52.0328999  59.2487812
  28.9964986  50.4896975  58.8973761  30.7794189  50.7432270  57.7766562
  30.7862592  51.7032576  57.2605181  30.2717686  49.9409342  57.2412014
  32.1858811  50.3977156  58.1383371  32.7830625  51.3036489  58.2421017
  32.6904082  49.6533394  57.5223398  32.0413733  49.9562693  59.5911407
  32.2068453  48.8799858  59.6394873  33.1729698  50.4907179  60.5031395
  34.1063333  49.6917677  60.7527065  33.0649686  51.6799355  61.0339737
  32.2604632  52.2002411  60.7143641  33.9277673  52.3016596  62.0729685
  34.9289465  52.3074532  61.6420174  33.6339951  53.7345409  62.3291206
  32.6638126  53.7993383  62.8217173  34.3780518  54.1347694  63.0178118
  33.6130619  54.4208241  61.1294889  32.7329731  54.2461634  60.7881117
  34.0758252  51.4900160  63.3114290  35.1637816  51.3482475  63.7517500
  32.9843545  50.9402704  63.9238214  32.0999908  51.1807919  63.4993696
  32.9832768  50.1303291  65.1608038  33.5088491  50.7585239  65.8800030
  31.5831614  49.7732735  65.6204939  31.0566425  50.7070065  65.8180428
  31.0884666  49.2412853  64.8078680  31.6102099  49.0292740  66.9626045
  31.6477084  47.9679537  66.7170477  32.4311757  49.3389463  67.6093006
  30.2634192  49.2037153  67.6605749  29.4967294  48.9951372  66.9143963
  30.0635409  48.4723854  68.4437132  29.9995446  50.4747438  68.2382536
  30.4133534  50.5958080  69.1516018  29.2583656  51.4740419  67.8205585
  28.5511708  51.4963341  66.7441607  28.4911776  50.6545877  66.1892080
  27.9426384  52.2880220  66.5924501  29.0463376  52.5969315  68.5236931
  29.5627880  52.7791023  69.3723392  28.2038450  53.1438398  68.4178495
  33.7621140  48.8304567  64.8346281  34.5950675  48.3938456  65.6474829
  33.5700202  48.2111359  63.7094116  32.8759575  48.6842012  63.1485319
  34.3269444  46.9891119  63.2773542  34.2787123  46.2382364  64.0660000
  33.5870886  46.5470362  62.0189857  33.2083464  47.4214268  61.4897346
  34.2316747  45.9750462  61.3515759  32.3590326  45.6181097  62.3730564
  31.8852520  45.8919096  63.3157444  31.3319969  45.6465054  61.1943722
  30.9696126  46.6647673  61.0532475  31.7187953  45.2426195  60.2587652
  30.5203867  44.9659777  61.4518166  32.7543736  44.1737223  62.4576759
  33.2126498  43.9379549  61.4972019  33.4014678  44.0069246  63.3188105
  31.8551087  43.5815048  62.6270914  35.8114409  47.2845888  62.9936600
  36.6091800  46.3761330  63.1956768  36.2555766  48.5179901  62.7075195
  35.5571413  49.2330122  62.5624704  37.6285458  48.8542175  62.2001934
  38.1974292  47.9244709  62.2067928  37.4784422  49.4245958  60.7967424
  38.4379864  49.5938444  60.3081417  36.8978095  48.6914635  60.2368450
  36.6920877  50.5860186  60.9219170  35.8025312  50.2690983  61.0946846
  38.5616183  49.7224426  63.1446743  39.5384574  50.2824688  62.7607203
  38.2414150  49.6075821  64.4655800  37.3927617  49.0820074  64.6193886
  39.0011096  50.1317453  65.6154394  39.0107036  51.2192726  65.5427074
  38.3652186  49.6817589  66.9324064  38.1709218  48.6172581  66.8013382
  39.0007710  49.8056698  67.8092337  37.0271850  50.4197502  67.1625757
  37.3058510  51.4673948  67.2761202  36.3705301  50.3230190  66.2979650
  36.2345195  49.7832537  68.3026695  36.7198133  50.1257753  69.2165995
  35.2750969  50.3005409  68.2969189  35.9846830  48.3511257  68.1417370
  36.0776758  47.9087687  67.2385359  35.6508541  47.4887991  69.0881348
  35.4953480  46.2259388  68.7306881  35.7365370  46.0294676  67.7697897
  35.3742981  45.4941797  69.4162369  35.5030942  47.8155851  70.2856684
  35.3593278  48.8004494  70.4573488  35.1507998  47.1192598  70.9268522
  40.5064154  49.7178841  65.5715275  41.3656855  50.6059504  65.7264662
  40.8346558  48.5177422  65.1582956  40.0896215  47.8681231  64.9508810
  42.1867943  48.1120253  64.9086618  42.7678967  48.3560133  65.7979870
  42.2851038  46.6034555  64.5911455  41.6680861  46.4307356  63.7093592
  43.3118296  46.4053297  64.2834234  41.8328905  45.6549931  65.7445478
  41.6824245  44.4315290  65.5040026  41.5302992  46.1098957  66.9198799
  42.8574705  48.9047337  63.7985468  43.8864231  49.5537996  63.9823055
  42.2071266  49.1339207  62.6312065  41.2808800  48.7346315  62.5788736
  42.6995564  49.9573278  61.5323305  43.6428976  49.5001841  61.2336254
  41.7100430  49.9031210  60.3017521  40.7236052  50.3346920  60.4714108
  42.1934795  50.4392862  59.4851017  41.5278435  48.5206318  59.7782326
  40.5844784  47.6891518  60.3003216  40.6257105  46.5732145  59.5162821
  39.8807049  45.7914352  59.5300436  41.5152979  46.7091751  58.5866213
  41.6439533  46.0625696  57.8214693  42.1581841  47.9366159  58.7274456
  42.8437090  48.3940601  58.0294466  42.8689957  51.4124775  62.0798635
  43.9283848  51.9821882  61.9222355  41.7842913  51.9304228  62.6838255
  40.9695435  51.3383341  62.7594662  41.7495298  53.2732248  63.3877277
  41.7353392  54.0873003  62.6630306  40.4238319  53.4983349  64.2018938
  40.1955938  54.5577002  64.3191385  39.5721436  53.0650997  63.6774540
  40.4598427  53.0340338  65.1874018  42.9746819  53.4900188  64.3158054
  43.7223291  54.5274925  64.1317177  43.2377672  52.5401354  65.2323151
  42.5987530  51.7598152  65.2857924  44.3558502  52.5528145  66.0613394
  44.2551136  53.5115957  66.5699577  44.2333460  51.3700533  67.0738173
  44.4219255  50.4526567  66.5162182  45.1790857  51.4383221  68.1845903
  44.6535063  50.9730196  69.0184784  46.0567760  50.8557940  67.9045582
  45.5203390  52.4646759  68.3196878  42.9656649  51.2572956  67.7519274
  42.4037647  50.8961916  67.0623779  45.6965399  52.5306654  65.3586006
  46.5353966  53.3072710  65.7863045  45.8680344  51.7157459  64.2649746
  45.1088428  51.1374283  63.9343929  47.0618725  51.6879702  63.4185934
  47.9456711  51.5306187  64.0368462  47.0479631  50.4798317  62.4454355
  46.2718010  50.6747913  61.7053890  48.0578470  50.5045223  62.0360088
  46.9742107  49.1443968  63.0895519  46.0901594  48.9350033  63.6918068
  46.8422031  48.1718874  62.0287275  46.7306328  47.1571541  62.4107885
  45.9950399  48.3974075  61.3809967  47.6460457  48.0623198  61.3007641
  48.1072426  48.7726593  63.9979935  48.0799007  49.3733120  64.9071503
  47.8420210  47.7529287  64.2771292  49.0716124  48.9253998  63.5134697
  47.2820091  53.0214691  62.6427221  48.3700848  53.6593294  62.8407764
  46.4029646  53.4870529  61.8084526  45.5409956  52.9907131  61.6330624
  46.5749407  54.6433067  60.8532095  46.9933796  55.4424286  61.4651060
  47.4225950  54.2153597  59.6759272  48.4294367  53.8736725  59.9159670
  46.8187428  53.3719301  59.3411255  47.5455666  55.1774406  58.5133219
  46.8520880  55.0517988  57.4974489  48.2751036  56.2588120  58.6932755
  48.4495640  56.8323278  57.8804159  48.7999821  56.3931179  59.5456600
  45.1551104  55.1347351  60.3594780  44.3891668  54.2436647  60.0136852
  44.8259401  56.4376736  60.4690218  45.5425596  57.0325518  60.8597660
  43.5095501  56.9993639  60.0443792  42.8090048  56.5601301  60.7546043
  43.4753180  58.0838490  60.1484108  43.0555534  56.7770529  58.5910273
  41.9465494  56.3333035  58.2972383  43.8977671  57.0955420  57.7041483
  44.7854948  57.4896669  57.9811049  43.6154985  56.9279146  56.2828684
  42.6916552  57.4905300  56.1484146  44.7110415  57.7510357  55.4828978
  44.2631865  57.9528093  54.5098543  44.9476147  58.6050987  56.1174965
  45.6525850  57.2058773  55.4166079  43.5441685  55.4598045  55.8527088
  42.8607273  55.1544237  54.9045467  44.2105579  54.4932365  56.5310812
  44.7981596  54.7095394  57.3235703  43.9759970  53.0524635  56.3354826
  44.0299845  52.7198172  55.2988863  45.0333643  52.2973061  57.1747112
  46.0890007  52.4478292  56.9487190  44.9706459  52.7396584  58.1689405
  44.7188759  50.8279324  57.4312639  43.7643909  50.8093596  57.9573059
  44.7071362  49.9531794  56.1820173  44.6255970  48.8991022  56.4473104
  43.8322735  50.2040815  55.5822039  45.6565571  50.0613642  55.6576109
  45.7870054  50.3831959  58.4711981  46.7889309  50.4077768  58.0426645
  45.7465839  51.0131407  59.3598127  45.5572176  49.3351412  58.6632347
  42.5006866  52.7371597  56.7712927  41.7753124  51.8881798  56.2059784
  42.1337509  53.3939171  57.8630829  42.7801466  53.9549923  58.3992481
  40.7763195  53.2481432  58.3026171  40.7038593  52.1677637  58.4276581
  40.4502487  53.7833357  59.7037220  41.3371229  53.5797596  60.3038216
  40.2393579  54.8257923  59.4651794  39.2160583  53.0656672  60.3324032
  38.6593223  52.5314522  59.5624924  39.5524645  52.3516560  61.0841465
  38.2699227  53.9603281  61.0421324  38.3208370  55.1936007  60.8554506
  37.4175763  53.3896542  61.9191217  36.9570899  54.0601206  62.5178909
  37.3182869  52.3908186  62.0312548  39.6905780  53.6590958  57.2659063
  38.8476372  52.8234148  56.9679213  39.8532009  54.8208714  56.6775227
  40.6078911  55.3660774  57.0690441  39.0207648  55.3892517  55.5744886
  38.0150914  55.4692554  55.9871960  39.6274686  56.7854548  55.2692461
  39.7506738  57.4211884  56.1460400  40.6414938  56.6282797  54.9016285
  38.6815977  57.5948334  54.3713379  37.9725838  58.7163353  54.9569988
  38.1433105  58.9235592  56.0030890  37.0629478  59.5264626  54.1909933
  36.4356422  60.2794695  54.6447182  37.1248651  59.3485546  52.8140211
  36.5276599  59.9406242  52.1363783  37.9739904  58.3743954  52.2273731
  38.0460215  58.3333635  51.1505556  38.6427617  57.4309826  52.9939413
  39.3667722  56.7978907  52.5026083  39.0638471  54.4819927  54.3147564
  38.0234623  54.3790150  53.6696768  40.1409912  53.8592052  53.9138842
  41.0342693  54.0653515  54.3377495  40.2286482  52.9575062  52.8123522
  39.6087360  53.4012318  52.0332956  41.6145992  52.6515198  52.2928715
  42.2481203  52.2847033  53.1004620  41.6447926  51.8689585  51.5347290
  41.9879341  53.5708952  51.8417883  39.4077945  51.6397381  53.2087517
  38.6147976  51.0857534  52.4079990  39.5678473  51.0815573  54.3831873
  40.1890993  51.6181564  54.9715757  38.8386106  49.8981285  54.9838352
  39.1681838  49.0560722  54.3752050  39.4082379  49.4678545  56.3712931
  39.3060589  50.2574253  57.1157646  38.7831998  48.1955004  56.8841410
  39.3247938  47.2889662  56.6140175  38.8717365  48.2559061  57.9688597
  37.7417636  48.0759144  56.5854692  40.7485819  49.3130112  56.1016226
  41.0558987  50.1602125  55.7708597  37.3468280  50.0877810  54.8929119
  36.5621686  49.2828035  54.3346167  36.9627714  51.2457848  55.4257631
  37.6043296  51.8403196  55.9307671  35.6125712  51.8480301  55.2792597
  34.9386740  51.0550785  55.6035852  35.6026936  53.1409740  56.0747242
  36.4984512  53.6709976  55.7510042  34.6776414  53.6453629  55.7954979
  35.4627228  52.8309345  57.5427055  34.4284654  52.4985981  57.6319599
  35.9675717  51.9036770  57.8136778  35.9699130  53.8678122  58.5731125
  35.8215141  53.3546066  59.5232201  37.0260715  54.0864372  58.4155226
  35.2868438  55.3078318  58.5814953  35.6618309  55.8976126  57.7450466
  34.2416000  55.0933170  58.3588743  35.4952121  56.0954762  59.8060131
  36.4548492  56.4066648  59.8546505  34.9257994  56.9239998  59.7089481
  35.2096486  55.5665970  60.6176996  35.1467323  52.0651102  53.8508415
  34.0459824  51.5986538  53.6164236  35.8987498  52.7446604  52.8931665
  36.7988491  53.1352139  53.1327295  35.4903793  52.9186010  51.4753437
  34.5186067  53.3992052  51.5883684  36.5037632  53.8149357  50.7960463
  36.4517689  54.8363018  51.1731529  37.5068736  53.4572029  51.0282230
  36.4172196  53.9751768  49.2932415  37.2715330  54.5862818  49.0020370
  36.5976119  53.0089235  48.8221693  35.0362563  54.4135952  48.8395214
  34.2721891  54.9560261  49.5283365  34.6554065  54.1128969  47.5975132
  33.7014675  54.3407917  47.3563385  35.3097367  53.8142395  46.8884611
  35.3199363  51.6067362  50.8029222  34.2908692  51.3958073  50.1235723
  36.3171005  50.6423616  50.9474230  37.1371388  50.8674812  51.4923620
  36.1736345  49.2385578  50.4974651  35.9550095  49.1824961  49.4310856
  37.4573183  48.3416653  50.8888340  37.7280760  48.7057352  51.8799162
  37.2029638  47.2912979  51.0307074  38.6268663  48.4065151  49.9349403
  38.6282849  49.4526672  49.6288967  39.8733854  47.9859972  50.6741810
  40.7366753  47.8294754  50.0273991  40.1601124  48.8027382  51.3366222
  39.7430634  47.0968771  51.2910891  38.2922268  47.5926733  48.7061596
  39.1432595  47.5421715  48.0269766  38.1184268  46.5523863  48.9812994
  37.5189233  48.0879831  48.1189871  34.8826575  48.5625029  51.0910177
  34.0858102  48.1016350  50.2621365  34.4648290  48.7564993  52.3766851
  35.1881766  49.1429996  52.9661655  33.1356382  48.2671118  52.8971386
  33.1437349  47.2059965  52.6479816  33.0145478  48.3904600  54.4441223
  33.7699175  47.8219318  54.9866104  33.1614947  49.4484806  54.6611595
  31.7452550  48.0058575  55.0212812  32.0369387  47.4289417  55.7309914
  31.8935633  48.9041328  52.1976852  30.9050632  48.1760645  51.9321728
  31.8695593  50.1883268  51.9485760  32.6335144  50.7880545  52.2257042
  30.9085441  50.8742237  51.1258411  29.9965143  50.7265663  51.7042065
  31.1448884  52.3681450  51.0268784  31.3445067  52.8265905  51.9954252
  31.8766546  52.6734257  50.2789307  29.7972059  52.9627705  50.6409693
  29.5856357  52.6756620  49.6109676  28.9154291  52.7658463  51.2507248
  29.8586154  54.5034218  50.5453777  28.7956095  54.7444439  50.5507803
  30.2163363  54.9598074  51.4683342  30.5704594  55.0439835  49.3645811
  30.9826374  54.3692780  48.7361050  30.9897733  56.2542105  49.0398312
  30.8668685  57.2532749  49.8716879  30.4599738  57.0675659  50.7772589
  31.2486434  58.1764650  49.7231293  31.6022682  56.5085268  47.9091787
  31.8002868  55.7589197  47.2618866  31.7545819  57.4857283  47.7042961
  30.8250284  50.2478409  49.7348166  29.7746277  49.8738050  49.2428303
  31.9669437  50.0060034  49.0126896  32.7978945  50.4249763  49.4052172
  32.0038748  49.5947170  47.6010036  31.2539268  50.2290583  47.1284723
  33.4335184  49.9185991  47.0035648  33.8264847  50.6269836  47.7328587
  34.3847132  48.7998199  46.6681385  35.3919697  49.1915464  46.5264130
  34.3914771  48.0741119  47.4814034  33.9805722  48.2858515  45.7960081
  33.2592392  50.5847788  45.8270693  32.7855325  51.3981915  46.0156488
  31.5502024  48.1175900  47.5003576  30.6761956  47.7607536  46.6936398
  32.0981860  47.2458124  48.3402586  32.6214242  47.6849127  49.0842390
  31.8735147  45.7966328  48.5521412  31.8993092  45.4073048  47.5343704
  32.8823853  45.1592731  49.4398165  32.9870844  45.6521177  50.4063749
  32.4247074  44.1923046  49.6486282  34.3009305  44.9586678  48.8730335
  34.5948434  45.9040213  48.4169436  35.3672147  44.7250891  50.0426006
  36.3219810  44.7531748  49.5174932  35.1500797  45.5055237  50.7719040
  35.1394224  43.7544870  50.4832172  34.3571281  43.8920403  47.8422976
  35.2106142  44.0419960  47.1811056  34.4941640  42.8809071  48.2256174
  33.4291625  43.7699032  47.2836685  30.4827023  45.4058981  48.9882755
  29.8226428  44.5342636  48.4640503  29.9667692  46.1050320  50.0310326
  30.4850411  46.8676615  50.4432154  28.6404586  45.7483435  50.5358744
  28.5590792  44.6680880  50.6563568  28.3175898  46.4815187  51.8562603
  27.3393130  46.0991955  52.1476460  29.0419960  46.2135601  52.6253748
  28.3788395  47.9349422  51.7646599  29.3020606  48.1866121  51.6876745
  27.5889063  46.2181664  49.4769764  26.5133095  45.6562710  49.4257021
  27.8356862  47.2691727  48.6143732  28.7200594  47.7546978  48.5669708
  26.9061112  47.6847172  47.5546074  25.8702183  47.7978373  47.8743410
  27.2807455  49.0913391  47.1325445  28.3337688  49.2692566  46.9144011
  26.6931129  49.3875837  46.2636185  27.0061827  50.1004124  48.2898378
  25.9232354  50.1220417  48.4117317  27.4138975  49.8920250  49.2790031
  27.4711680  51.4914036  47.8720713  28.5557199  51.5458059  47.7777863
  27.0012116  51.7316008  46.9183683  26.9835114  52.4508572  48.8390017
  26.6647387  52.1936846  49.7622252  26.9994116  53.7508821  48.6541414
  27.3973298  54.3296909  47.5394106  27.8588986  53.7590742  46.8455410
  27.5908589  55.3209305  47.5301838  26.5970111  54.5291233  49.6526051
  26.3084555  54.0663910  50.5027342  26.5487313  55.5058002  49.3998814
  26.7803025  46.7581654  46.2948799  25.7778978  46.8475819  45.5659103
  27.7642393  45.8770275  46.1046839  28.4502697  45.6970358  46.8237591
  27.8892994  45.0095749  44.9577093  27.8334928  45.6560135  44.0818596
  29.3077970  44.4452190  44.9777031  30.0171494  45.2023554  45.3118801
  29.3328047  43.6868954  45.7602739  29.5795441  44.0372944  44.0041256
  26.8525887  43.9060307  44.9276733  26.3040638  43.5143518  45.9453773
  26.6773796  43.2997131  43.7687063  27.2613502  43.5212421  42.9749775
  25.8062935  42.1824074  43.4350681  25.1009440  41.9942522  44.2444992
  24.7793531  42.6153040  42.3590803  25.2181244  42.7972412  41.3780165
  23.6699271  41.5570927  42.1537018  24.1953325  40.6176186  41.9821548
  23.1294799  41.4951944  43.0982590  23.0941319  41.9402552  41.3112354
  24.0378928  43.7426949  42.7138281  24.5641851  44.5445633  42.6735783
  26.5814972  40.9148169  43.0576992  27.2635007  40.9750748  42.0628309
  26.4814544  39.8360157  43.8156223  25.6227016  39.5641184  44.9764204
  24.6309829  39.9717665  44.7804213  26.0174489  39.9745178  45.9058523
  25.5311561  38.0700111  45.1411009  24.7437620  37.6168942  44.5387745
  25.2359223  37.7190995  46.1299372  26.8746281  37.5626636  44.7132206
  26.8339109  36.5551162  44.2993450  27.5859547  37.6643395  45.5328369
  27.2985649  38.5973406  43.6257124  28.3644319  38.7953138  43.7390089
  27.0843863  37.9513693  42.2754288  25.9712648  38.0574822  41.8102789
  28.0718064  37.2847486  41.7463017  28.9726281  37.2610426  42.2024345
  27.8912878  36.4512324  40.5066109  27.4737930  37.1510410  39.7826886
  29.3034458  35.9343886  40.0291872  29.6565962  35.2486610  40.7993603
  29.1712117  35.0926876  38.7394500  29.9794555  34.3901062  38.5364270
  28.3097100  34.4262457  38.7815261  29.0883327  35.6993389  37.8376651
  30.3000045  37.0599747  39.7484255  30.6446099  37.3826313  40.7308912
  31.1214113  36.6852188  39.1377330  29.7541738  38.3654761  39.1016650
  30.4987073  39.0893960  38.7704253  28.9837193  38.2284760  38.3428955
  29.2576742  38.9131093  39.9027205  26.8604088  35.2527189  40.6879902
  26.9207144  34.4991446  41.7111731  25.8953857  35.0253916  39.7646880
  25.7344580  35.8288884  38.5482407  26.6836405  35.9888053  38.0367851
  25.2789640  36.7860866  38.8020062  24.7813725  35.1156688  37.6282930
  25.2664542  34.5601988  36.8256426  24.0799546  35.8141541  37.1719694
  24.0754700  34.1640949  38.6087179  23.6024570  33.2542920  38.2390976
  23.2409358  34.7413659  39.0067267  25.0989962  33.8159752  39.6517515
  24.4339991  33.6127067  40.4911327  25.9764385  32.5571966  39.3887925
  26.7321348  32.4501395  38.3700299  25.9457588  31.6005397  40.3346443
  25.3666711  31.7602015  41.1465979  26.7685318  30.3754210  40.3214931
  27.7801323  30.7726121  40.4052162  26.4447951  29.5977974  41.6139269
  26.5469718  30.2922606  42.4478245  25.3993535  29.3088055  41.7218065
  27.4067354  28.4535694  41.9652510  28.2584810  28.5323358  41.2896585
  27.7421117  28.5897183  42.9933977  26.8447852  27.0963717  41.7421341
  26.4945030  26.7648673  40.5714893  26.6005015  26.2938404  42.7279663
  26.5168619  29.5851064  38.9965606  25.3409719  29.3981910  38.6750150
  27.5722980  29.1549611  38.2915759  28.4562874  29.2341018  38.7736559
  27.6194620  28.3120203  37.0377207  27.3698735  27.2642350  37.2049284
  26.6760540  28.8667631  35.8751249  25.6679034  29.0027070  36.2666035
  26.8823051  29.9042249  35.6120062  26.5796137  28.0769038  34.6211934
  26.6516423  28.7591410  33.3345985  26.7891335  29.8303294  33.3416891
  26.5414047  28.0117369  32.1214676  26.7335582  28.5450149  31.2021780
  26.4013362  26.6027451  32.1240711  26.4159727  25.9360600  30.9730887
  26.7073107  26.4402914  30.2098870  26.3896585  25.9468460  33.3536601
  26.0600471  24.9184418  33.3656001  26.4575243  26.6830969  34.5992613
  26.4672422  26.1100245  35.5146289  29.0744638  28.3064103  36.6338897
  29.6454835  29.3464136  36.3060045  29.6074533  27.0677590  36.6360188
  28.9918470  26.3175035  36.9157434  30.9723639  26.6871548  36.2828183
  31.6962624  27.2205091  36.8989444  31.2822366  25.2939510  36.7708898
  30.9346843  25.1767492  37.7973247  30.6446481  24.6574712  36.1573172
  32.7164149  24.8911476  36.5911412  32.8280926  24.7835517  35.5122304
  33.7747216  25.8851957  37.0824862  33.7022686  26.7925858  36.4829063
  33.5702491  26.0271168  38.1436896  34.7842789  25.5399656  36.8595290
  33.0016780  23.4858561  37.1719027  32.2117114  22.7670813  36.9541526
  33.9164925  23.0333638  36.7891836  33.1086802  23.7538743  38.2230067
  31.3461423  26.9702721  34.8556471  32.2945309  27.6168442  34.5521402
  30.5624700  26.4033723  33.9328694  29.8628712  25.7484317  34.2517948
  30.6340170  26.5318131  32.4405742  29.8430371  25.8575630  32.1121860
  30.2854204  27.9509020  31.9454503  29.2868924  28.1061816  32.3540211
  31.0009980  28.6856937  32.3144102  30.0866652  28.1577516  30.4297042
  31.0508394  28.0057192  29.9445724  29.5208693  27.2669148  30.1569724
  29.3447232  29.4769430  30.0171065  28.3478165  29.4879866  30.4577351
  29.9556899  30.3210235  30.3370380  29.2056918  29.4730425  28.4804583
  30.2192855  29.6147561  28.1054235  28.7942123  28.5742712  28.0211163
  28.5228610  30.6542683  27.8232479  27.5510597  30.4496861  27.6392674
  28.6623120  31.5496206  28.2693386  28.9456463  30.9458113  26.9535589
  31.8811607  25.9161544  31.8803501  32.5417280  26.4623570  30.9734321
  32.2460818  24.7368526  32.3687339  31.5408182  24.2416310  32.8954744
  33.4576917  24.0023732  31.9686246  34.3100572  24.6406531  32.2013712
  33.5102272  22.6962280  32.7857518  33.3718920  22.9537058  33.8358307
  32.6290536  22.1162868  32.5113344  34.7722769  21.7603755  32.6467800
  35.0088358  21.6789174  31.5858817  35.6117916  22.2264123  33.1626534
  34.5353532  20.3612685  33.3232164  33.6915898  20.0344181  34.2080116
  35.2387762  19.3414605  32.9246593  35.0504971  18.4825313  33.4215403
  36.0602999  19.5513785  32.3759007  33.4279227  23.7089586  30.4325700
  32.4455190  23.0177999  30.0165701  34.4347692  24.0969992  29.6830535
  35.1367402  24.6028304  30.2040815  34.6610379  24.0064526  28.2612991
  34.0299225  24.7947598  27.8509736  36.2033081  24.3101716  28.0478621
  36.4372993  25.0805426  28.7826252  37.2199726  23.1523657  28.3599424
  37.1219707  22.2739720  27.7220392  38.2228327  23.5658336  28.4668064
  36.8972182  22.8787088  29.3644547  36.5208340  24.8952389  26.6946149
  36.3028812  24.2697453  25.8289623  35.8253956  25.7064486  26.4791846
  38.0085015  25.2874875  26.6054583  38.4024668  25.8425975  27.4567819
  38.6934996  24.4469571  26.4941573  38.1037045  25.8403802  25.6709290
  34.2446041  22.7068901  27.6657414  34.5681286  21.6542625  28.2593155
  33.7380791  22.6887226  26.4258409  33.0173898  23.8157392  25.8045197
  33.5657907  24.7487736  25.6749034  32.2044349  24.0209961  26.5009928
  32.5010180  23.3915806  24.4215679  33.2206440  23.5527253  23.6189032
  31.5723014  23.9160275  24.1967583  32.3455477  21.8709731  24.7835135
  32.3734903  21.2264991  23.9048910  31.3850379  21.7460489  25.2834272
  33.4541082  21.4398861  25.6923223  33.0451679  20.6822085  26.3607478
  34.7506595  20.9595037  24.9964428  35.6650400  21.6838741  24.6036053
  34.8347664  19.6608543  24.8591208  34.1266084  19.1844797  25.3992033
  35.9355259  18.9656115  24.1910148  36.8373466  19.0792322  24.7926021
  35.6677604  17.4162662  24.1545653  34.5926380  17.2531056  24.0797853
  36.1998749  16.9981897  23.3000660  36.2314558  16.6782081  25.3014112
  37.4346781  16.4653146  25.4649854  35.4082227  16.2118483  26.1819100
  35.8134651  15.8504450  27.0335364  34.4579601  16.5344906  26.0678864
  36.1528587  19.4895935  22.7171826  37.3146152  19.6791255  22.2691083
  35.0611019  19.9148297  22.0536041  34.1386938  19.7365832  22.4243999
  35.0715446  20.6497836  20.7416081  35.4984999  20.0047159  19.9736917
  33.6076546  20.8636403  20.3044462  33.4703732  21.2616110  19.2990232
  33.2348514  19.8398793  20.2723360  32.7496195  21.4312077  21.2317014
  31.8668842  21.5030265  20.8612704  35.7543755  21.9868445  20.7299304
  35.9264445  22.4652672  19.6418917  36.1065960  22.6167798  21.8485951
  35.8645964  22.1415997  22.7063513  36.8438411  23.8049889  21.8913794
  37.3131895  23.9618468  20.9201884  35.8349085  24.9884629  22.2546506
  35.5622625  24.9135494  23.3073401  36.3544631  25.9258008  22.0557523
  34.4026423  24.8516989  21.1673713  35.1230645  25.1905727  20.0944996
  38.0677152  23.7217093  22.8182077  38.7719965  24.6915627  22.9634333
  38.4413385  22.5610852  23.4642434  37.8097749  21.7916775  23.2932329
  39.5691442  22.3562932  24.3611121  39.3681765  22.9573798  25.2479148
  39.6671176  20.8256364  24.6884799  39.2773438  20.1879311  23.8950634
  41.0917854  20.2543879  25.1570964  40.9992981  19.2028344  25.4287291
  41.8155479  20.2858305  24.3426776  41.4565229  20.9129834  25.9453344
  38.7534952  20.5590916  25.9336925  37.7495193  20.9634757  25.8048439
  38.6329365  19.4827962  25.8105826  39.1786671  20.7952070  26.9091868
  40.8852911  22.8467894  23.6690879  41.2072945  22.5520778  22.5157714
  41.7044020  23.5608077  24.5281816  41.3105679  23.8290167  25.4187202
  43.1125164  23.8552547  24.3443179  43.5104656  23.1726885  23.5934234
  43.3132553  25.2483320  23.7422323  42.5742292  25.5199885  22.9884768
  43.2494831  25.9430695  24.5797157  44.6107912  25.3126025  23.1658483
  44.6029758  24.5626473  22.5665975  43.8660574  23.6654687  25.6279969
  43.2484722  23.3498287  26.6780925  45.1971388  23.7894273  25.6708908
  45.6731319  24.1793323  24.8699498  46.1653042  23.5148764  26.7579031
  45.6435490  23.3087969  27.6924634  46.6607666  22.5932193  26.4526796
  47.1546650  24.6480584  27.0377827  46.8511200  25.8129716  26.7891645
  48.2941628  24.3796635  27.6170993  48.6155128  23.4308696  27.7460408
  49.3005228  25.3501058  27.8873134  48.9423323  25.9769559  28.7039280
  50.4610157  24.6535826  28.4134340  50.7412338  23.9287448  27.6491117
  50.1494741  24.1280866  29.3161488  52.0140123  25.7197046  28.6036110
  49.6076679  26.3029885  26.6546416  49.8133516  25.8202076  25.5769086
  49.6404171  27.6031995  26.8710947  49.4712210  27.8818226  27.8270459
  50.0099087  28.6304808  25.8473635  50.5155993  28.2086945  24.9787593
  48.7389994  29.3295598  25.3961921  48.1281471  29.7597170  26.1898708
  49.0556526  30.1163816  24.7115445  47.7067614  28.1037116  24.6160388
  47.8870535  27.0782065  25.4531407  51.0087681  29.7611833  26.3856649
  51.3663054  30.6007767  25.5699658  51.6505051  29.6626711  27.5658536
  51.4786053  28.8562918  28.1492090  52.8355217  30.3708744  28.0132771
  52.5063515  31.3311648  28.4102535  53.2906866  29.5447659  29.2264175
  54.2550421  29.9171424  29.5720315  53.4839678  28.5181785  28.9151907
  52.0287085  29.2385077  30.4445076  53.8784075  30.5631900  26.8985891
  54.3126106  31.7126083  26.6948080  54.3599987  29.5569658  26.2286234
  53.9077854  28.6545539  26.2641072  55.1959848  29.6698642  25.0417590
  56.1903954  29.9640751  25.3774500  55.3692961  28.7252307  24.5262623
  54.7435760  30.7397914  23.9619708  55.5287838  31.7104459  23.8515139
  53.6157465  30.6470299  23.2294893  53.0932045  29.7842169  23.2805586
  53.0293655  31.7031908  22.3320603  53.6664581  31.7702532  21.4501786
  51.6463280  31.1559439  21.7632508  51.8091345  30.1544762  21.3649321
  50.9950686  30.9623432  22.6155901  50.8845568  31.9373798  20.7809424
  51.0103464  31.7679477  19.4294357  51.5112448  30.8941603  19.0395629
  50.3515196  32.7941203  18.7747908  50.2447319  32.8825998  17.7743542
  49.7180605  33.6859822  19.7006822  49.1220999  34.9208379  19.5813036
  48.8391924  35.2700281  18.5992503  48.7445021  35.7384825  20.6895304
  48.2315922  36.6714168  20.5079627  48.9466667  35.1739168  21.9767332
  48.4891129  35.7162786  22.7909184  49.5590067  33.8918042  22.0740223
  49.6937227  33.4169221  23.0346155  50.1168203  33.1634808  20.9529018
  52.8190374  33.0653834  23.0426502  53.0994177  34.1422606  22.5404143
  52.3814201  33.0447245  24.3119431  52.2291946  32.1102619  24.6636724
  52.0325756  34.2744184  25.0853682  51.5352726  34.9756527  24.4152474
  51.1294079  34.0296245  26.3413572  51.6096115  33.2480693  26.9301462
  51.0350943  34.9776745  26.8708944  49.7164440  33.5721397  26.0481715
  49.6957397  32.8845406  25.2026629  49.0577888  32.9206872  27.3088574
  48.1010818  32.4678755  27.0485163  49.7188663  32.1102524  27.6158953
  48.9888430  33.6606169  28.1062603  48.7801170  34.7512341  25.8039999
  47.8120852  34.3313122  25.5307221  48.6626244  35.4039979  26.6689849
  49.2533493  35.3169918  25.0014591  53.3324337  35.1244068  25.3862643
  53.3678246  36.2783146  25.1265001  54.3429613  34.4805694  25.9201646
  54.3085289  33.4727836  25.9774733  55.5464363  35.1589537  26.4185429
  55.2351332  35.8990741  27.1557069  56.6636896  34.1769838  26.9266105
  56.8098783  33.4549689  26.1232281  58.0216599  34.8787355  27.2657681
  58.5833025  34.1044426  27.7883887  58.5541105  35.2179813  26.3772249
  57.9495335  35.7169104  27.9588485  56.1311102  33.5580420  28.1215119
  55.4726982  32.9236293  27.8289223  56.0443544  36.0211897  25.2802992
  56.3349676  37.1973872  25.4768848  56.2706900  35.3652310  24.1335392
  56.1900568  34.3673038  24.0003538  56.7126417  36.1373949  22.8822207
  57.7361965  36.4743948  23.0461621  56.8476391  35.2325964  21.5655947
  57.5938940  34.4518328  21.7126250  55.8554554  34.8152661  21.3938141
  57.2293377  36.0816622  20.3267884  57.0439386  35.3944659  19.5012665
  56.4967966  36.8627858  20.1234913  58.6412859  36.7029476  20.2782750
  58.5524702  37.6554179  20.8007836  59.3533421  36.0053253  20.7191730
  59.0901136  37.0065618  18.8070261  59.2058849  36.0365272  18.3235693
  58.2502508  37.5096917  18.3278656  60.3493309  37.7087855  18.6312759
  60.9972906  37.2427320  19.2501795  60.7687378  37.7110267  17.7124751
  60.2624846  38.6880636  18.8627255  55.8397388  37.3692179  22.5887370
  56.3991737  38.4220791  22.4963713  54.5255947  37.2253084  22.5149989
  54.2059803  36.2676907  22.4847627  53.5259056  38.2878661  22.2491002
  53.7292004  38.6961412  21.2591076  52.1253586  37.6456094  22.0936537
  51.9390297  36.9654584  22.9247856  51.0052395  38.6596203  21.9955444
  49.9675417  38.3449697  21.8847156  51.0030842  39.2252445  22.9273009
  51.1270618  39.3900228  21.1956835  52.0150566  36.9114399  20.8756399
  51.1561823  36.4847469  20.9188700  53.5840082  39.4038057  23.3156681
  53.3365631  40.6283283  22.9812765  54.0756464  39.1196585  24.5491815
  54.1215706  38.1319046  24.7549248  54.2220926  40.0377274  25.6340837
  53.5226440  40.8533287  25.4505992  53.8427687  39.5590329  27.0506501
  54.6332836  38.9167380  27.4387932  53.7423325  40.7416582  28.0407405
  53.0152512  41.4183044  27.5917363  53.2961321  40.2876043  28.9255214
  54.7424269  41.0583735  28.3367229  52.5066042  38.8037825  27.1630549
  52.6108408  37.9517484  26.4912868  52.4584961  38.5650373  28.2255006
  51.7232180  39.5143723  26.8994856  55.5634594  40.8112478  25.6456304
  55.6180382  42.0320225  25.8281326  56.6593790  40.1287842  25.3336358
  56.5252161  39.1319585  25.2417827  58.0365419  40.6194925  25.0372076
  58.5288286  41.1399317  25.8587289  58.9656401  39.3942881  24.7359085
  58.4604788  38.6880088  24.0770507  59.8943138  39.6861172  24.2455006
  59.3844557  38.6139059  26.0050249  59.8081779  39.4103527  26.6167712
  58.5377216  38.1612873  26.5210485  60.4779530  37.6523256  25.6158471
  60.0959826  36.8737745  24.9555016  61.2652969  38.1646419  25.0629210
  60.9839869  37.1208453  26.9430065  60.9506893  37.8261900  27.7733564
  60.3332853  36.3392615  27.3352003  62.3058653  36.6407824  26.8806314
  62.9393959  37.4073339  26.7041540  62.6561594  36.1818147  27.7093291
  62.4153519  36.0550570  26.0651326  58.0429888  41.6024923  23.8452554
  58.1847858  42.8124094  24.0494394  57.5884914  41.2145805  22.6569462
  57.5249434  40.2091360  22.5851846  57.2682953  42.0671654  21.4725065
  58.2838535  42.3873138  21.2395978  56.7618752  41.2129545  20.3412962
  55.9271479  40.6880617  20.8058548  56.3132048  41.8053865  19.5439088
  57.8428936  40.2631998  19.7297895  58.4168530  39.9138093  20.5880427
  57.3235846  39.4229650  19.2689037  58.7606812  40.8722115  18.6777377
  58.3961725  41.8406582  17.9746354  59.9592876  40.5847645  18.5902107
  56.4663553  43.3548021  21.8024135  56.9239140  44.4312000  21.3513374
  55.3504086  43.2472563  22.4829626  54.9394369  42.3642540  22.7503800
  54.5311022  44.4109488  22.8432775  54.1608143  44.9169111  21.9516563
  53.2175159  44.0855408  23.5752988  53.4551001  43.4511423  24.4292259
  52.2911835  45.2633142  23.8542223  52.7854633  45.7660723  24.6854997
  52.2255754  45.9101725  22.9793668  51.3795900  44.8609781  24.2960644
  52.5425863  43.2070684  22.6830769  53.0093288  42.3688841  22.7176595
  55.2733850  45.4300022  23.6768937  55.0692606  46.6152620  23.6302471
  56.2742710  44.9683475  24.5069742  56.3163948  43.9794350  24.7079062
  57.2561979  45.8071756  25.2595329  56.7101622  46.5820360  25.7976174
  58.1133795  45.0197744  26.3279939  58.8620567  44.3857479  25.8530307
  58.7451363  46.0024309  27.3285723  58.0123472  46.6308117  27.8347826
  59.2772388  45.4275227  28.0864954  59.4842720  46.5257120  26.7219758
  57.2309113  44.1567993  27.0109105  56.9130182  43.5401869  26.3473344
  58.1755781  46.5299225  24.3269873  58.1570911  47.7349281  24.1842222
  58.8747168  45.7182550  23.5852695  58.8157892  44.7231722  23.7478614
  59.7986889  46.1206436  22.5509048  59.3189144  46.7069483  21.7672181
  60.9990406  46.9044781  23.1897187  61.7714691  47.2447968  22.5000548
  60.6158304  47.8806448  23.4869647  61.8018913  46.0824108  24.2556953
  61.1502504  45.8194304  25.0889444  62.2633791  45.1929522  23.8267422
  62.9634476  46.9016075  24.7694016  62.6580715  47.9229546  24.9967813
  63.2641649  46.5038824  25.7386708  64.2368221  46.8929243  23.9702654
  64.3897629  46.1223412  23.3355093  65.2311659  47.7625275  24.1471934
  65.1615286  48.6157227  25.1160336  64.3091869  48.6559200  25.6564021
  65.8636379  49.3413639  25.1401830  66.3897514  47.7640247  23.4921145
  66.5458202  47.1526527  22.7034640  66.9997835  48.5526896  23.6532426
  60.3614283  44.8448515  21.8032169  60.6511879  43.8095427  22.3679543
  60.4103279  44.8668242  20.4720879  60.0127935  45.6669188  20.0010109
  60.8331680  43.8041258  19.6367681  60.0649834  43.0390215  19.7490430
  60.7945538  44.1947603  18.1442714  59.7846699  44.5800352  18.0035603
  61.8167210  45.2334452  17.6989031  62.8294849  44.8842049  17.8999615
  61.7502785  45.4251862  16.6279590  61.6358852  46.1689615  18.2282448
  61.0012341  42.9758263  17.3519218  60.3921890  42.2806549  17.6115489
  62.2038126  43.2514906  20.0276089  63.1040668  43.9927483  20.3457189
  62.3102713  41.9341803  19.9587584  61.5257645  41.3703537  19.6642280
  63.5479927  41.1561108  20.0986147  64.3436289  41.7748880  19.6836734
  63.7925625  41.0038424  21.6095853  63.8292074  41.9804478  22.0922947
  63.1452322  40.3964520  22.2421527  65.2001619  40.4431152  21.7926431
  65.2599621  39.4751120  21.2951565  65.9337330  41.0263300  21.2360144
  65.6303883  40.2391481  23.2977104  64.8213530  40.0310564  24.2493391
  66.8593693  40.1511049  23.4728599  63.4453249  39.8506689  19.3648541
  62.5556469  39.1052413  19.7239888  64.2951441  39.5432734  18.3053100
  65.0970316  40.5735302  17.5935411  65.8689880  40.9323502  18.2743013
  64.4310522  41.3800240  17.2867227  65.7265568  39.8310518  16.4198470
  66.6310596  39.3350887  16.7719746  65.9930086  40.5127716  15.6121576
  64.7390509  38.7181830  16.1263454  65.2427912  37.9809785  15.5011427
  63.8933229  39.1149235  15.5647027  64.1933060  38.2983065  17.4960220
  63.1664181  37.9337049  17.5217485  65.1234865  37.2416496  18.1444323
  66.1165571  36.8761683  17.5489414  64.8203135  36.7735767  19.3660975
  63.9675570  37.1620035  19.7429717  65.5949593  35.8172464  20.2157855
  66.0181808  35.0361824  19.5841777  66.7985678  36.4906335  20.9745359
  66.3829756  37.1923423  21.6977167  67.5822639  35.5460644  21.8620253
  68.5144329  35.8992457  22.3029733  67.0725536  35.2921391  22.7914453
  67.7405787  34.5974088  21.3491082  67.8653860  37.3471189  20.0847244
  67.3158216  38.0867267  19.5024371  68.5511732  37.8506112  20.7661104
  68.5583925  36.5470362  18.9713860  69.3555927  36.0153675  19.4909024
  67.9718924  35.7367635  18.5382819  68.9628983  37.1871424  18.1873333
  64.6587515  35.0545406  21.2061048  63.9478350  35.6836963  21.9402552
  64.8694897  33.7164187  21.2694812  65.5670309  33.3641386  20.6296062
  64.3472433  32.8017545  22.2154951  64.8649693  31.8702722  21.9865894
  64.8190212  33.1807446  23.6468315  65.9012890  33.3091354  23.6645317
  64.3489599  34.1067076  23.9781070  64.3714142  32.1833086  24.6873164
  63.9417839  31.1001754  24.3399405  64.3848038  32.7144623  25.9068608
  64.3237638  31.9848514  26.6025925  64.8156071  33.5965753  26.1443257
  62.8296852  32.5033164  22.0414591  61.9704199  33.4035492  22.0341134
  62.4101448  31.2465668  21.8767071  63.1949997  30.6317973  21.7149448
  61.0256624  30.6933975  21.9697809  60.3633595  31.4339280  22.4181938
  60.4423189  30.4468012  20.5676508  59.4619846  29.9747086  20.6322575
  60.1648855  31.6827583  19.7109687  59.3584013  32.2423363  20.1848435
  61.1046314  32.2191453  19.5795786  59.7715712  31.3468075  18.7515199
  61.2550545  29.5351267  19.8970509  61.1507177  28.7196732  20.3927803
  60.9179544  29.4628429  22.9270720  60.2081585  28.4731054  22.6056337
  61.4969110  29.5654774  24.1252089  62.2172785  30.2556515  24.2827892
  61.5476656  28.4291553  25.1252556  60.8266354  27.6477838  24.8850942
  62.9725313  27.8235197  25.0887799  63.7489271  28.5436940  25.3469634
  63.0260706  26.6631103  26.0606742  62.3777390  25.8680820  25.6923032
  64.0287209  26.2374163  26.1003971  62.8160572  27.0518875  27.0570898
  63.2404804  27.2241807  23.8174605  63.5572815  27.9305100  23.2497168
  61.1041594  28.9958024  26.4729762  61.9176197  29.6823430  27.0887327
  59.9249744  28.7319803  26.9969296  59.3984127  28.1672430  26.3458490
  59.1356802  29.4275451  28.0613685  59.8160505  29.8035765  28.8254333
  58.4331179  30.5706000  27.4059892  57.7381706  30.1350236  26.6880584
  57.8210115  31.0492659  28.1703901  59.3177700  31.5674806  26.7581105
  60.3435373  32.1742558  27.5077105  60.5564356  32.0067859  28.5531902
  61.0854530  33.1766319  26.8746209  61.7627478  33.7592673  27.4814248
  60.8828259  33.5667491  25.4932928  61.6939878  34.5264602  24.8571134
  61.8172836  34.2193174  23.9559698  59.8056507  32.9963660  24.8060203
  59.6282768  33.2684755  23.7760210  59.0563965  31.9279051  25.4149055
  58.2743597  31.4093018  24.8802376  58.1239271  28.5590053  28.9014435
  57.4528265  27.6940703  28.3625436  57.9320526  29.0024495  30.1983666
  58.5494709  29.7206783  30.5491400  56.7423773  28.5912609  31.0159039
  56.0104799  28.0602002  30.4073000  57.3200130  27.6632214  32.1199775
  58.1587601  28.1429887  32.6243782  56.5973091  27.4161911  32.8976536
  57.9118824  26.4336801  31.5797639  57.1895885  25.8463454  31.3453841
  56.0351419  29.8125052  31.6990948  56.4734030  30.8972049  31.5619993
  55.1693058  29.5179057  32.6562119  54.8338079  28.5654616  32.6762462
  54.3735552  30.5678320  33.3627892  53.7667322  31.0453510  32.5934768
  53.3595037  29.9402809  34.2765689  52.6168013  29.4472528  33.6493373
  53.8831758  29.2812800  34.9690890  52.4962664  30.9557676  35.0797129
  51.4349079  31.6712832  34.4347072  51.2002516  31.4460397  33.4048510
  50.8682203  32.8044200  35.0016093  50.1118565  33.3664751  34.4739604
  51.1326218  33.1083846  36.3725305  50.3073740  33.9886880  36.9419432
  49.3828630  33.8601685  36.7175245  52.1520901  32.3439240  37.0692658
  52.4725246  32.5933862  38.0700111  52.8771448  31.3008237  36.3840795
  53.7597847  30.8196688  36.7788458  55.3561497  31.5120459  34.0697789
  54.9963045  32.6849985  34.0516257  56.4808321  31.1272073  34.6201110
  56.7196655  30.1503372  34.5263863  57.5133610  32.0364022  35.2463984
  57.0290136  32.5395823  36.0832477  58.6929703  31.1189079  35.7363224
  58.1971693  30.2799892  36.2246823  59.5502138  30.5439329  34.5870233
  59.9121046  29.5983124  34.9906778  59.0046072  30.2469778  33.6913490
  60.4276371  31.1688638  34.4206214  59.3397808  31.8963170  36.6622424
  59.2775106  31.3325644  37.4367809  57.9785538  33.1512976  34.3458438
  58.2275915  34.3248892  34.7541046  58.1632519  32.8084517  33.0599141
  57.9437065  31.8344617  32.9074574  58.4789181  33.6800051  31.9455647
  59.1289568  34.4065928  32.4330378  59.1082811  32.8899527  30.8198452
  58.2898951  32.2358346  30.5190587  59.3835497  33.6207557  30.0594139
  60.3333521  32.1245980  31.3247538  61.2387228  32.8321862  31.7608714
  60.3450298  30.9286833  31.1576056  57.3288345  34.5652509  31.3659787
  57.5683355  35.7031393  31.0705543  56.1271334  33.9356160  31.3693047
  56.1126661  32.9367185  31.5179634  54.8660707  34.5967722  30.9839702
  55.0326204  35.0752687  30.0188732  53.7328005  33.5725117  30.7975006
  54.0433550  32.8643584  30.0292730  53.6786556  33.1997061  31.8203306
  52.3530483  34.1717434  30.4573178  52.1744490  35.3985453  29.7912550
  53.0439091  35.9872150  29.5384526  50.8727217  35.8788848  29.6042681
  50.8020163  36.8155074  29.0712237  49.8210859  35.1106429  30.1215434
  48.8166523  35.4388380  29.8983741  49.9646664  33.9032316  30.7343268
  49.1368151  33.3664489  31.1735582  51.2725163  33.3746982  30.8164144
  51.4846468  32.3596525  31.1182189  54.5699787  35.7278562  32.0529723
  54.4014978  36.8937540  31.7067719  54.5097446  35.3142095  33.3252454
  54.7985601  34.3706322  33.5405540  54.4508982  36.2894535  34.3986487
  53.4357882  36.6852546  34.3670988  54.5787191  35.4971623  35.7171679
  54.0931749  34.5301270  35.5860543  55.6069756  35.3409672  36.0433459
  53.8539839  36.1217713  36.8650675  52.8571844  36.4453864  36.5654707
  53.8147545  35.3474188  37.6311851  54.5121288  37.3427415  37.5441360
  55.6548691  37.6962304  37.3722839  53.8407564  38.1325436  38.3209157
  54.4052029  38.8839173  38.6909652  52.8392696  38.0746174  38.4382796
  55.4696178  37.4200177  34.3495417  55.1695061  38.6214757  34.4937205
  56.7406082  37.0742345  33.9539433  56.8753529  36.0833025  33.8125086
  57.8869820  37.9612541  33.9061284  57.8655624  38.5166907  34.8437476
  59.1930628  37.0962930  33.7464690  59.2247295  36.4553475  34.6275425
  58.9680910  36.4366794  32.9083776  60.5067301  38.0009365  33.7061238
  61.2920141  37.2854519  33.4621692  60.2609015  38.6974287  32.9045177
  60.8909798  38.8515854  34.9170780  60.2530241  39.7353482  34.9084926
  60.6824636  38.3364892  35.8547854  62.3474312  39.2803764  34.9414301
  62.9574776  38.4180212  35.2102923  62.5225210  39.6654081  33.9368439
  62.5670242  40.3842783  35.8614421  62.0767546  41.2388754  35.6391692
  62.4609280  40.0645304  36.8136024  63.5557318  40.5902290  35.8734512
  57.7028418  38.9658260  32.6804137  57.9629087  40.1258898  32.9582763
  57.2866583  38.5283637  31.4903498  57.1240425  37.5384974  31.3727689
  56.9346619  39.3815207  30.3393602  57.8120041  39.9001527  29.9528503
  56.6493273  38.4494591  29.1620374  57.4045086  37.6664162  29.0939021
  55.6438398  38.0656004  29.3345165  56.6281891  38.9530325  28.1955624
  55.8685112  40.4077482  30.7933784  56.0591125  41.5830755  30.5892825
  54.6956444  39.9493194  31.3286376  54.6881104  39.0180254  31.7194462
  53.6152411  40.8594322  31.6893387  53.2033777  41.3637209  30.8151746
  52.4276876  40.1258326  32.2986484  52.7545071  39.5091605  33.1359076
  51.2979507  41.0485315  32.7094483  51.0239458  41.7890644  31.9580245
  50.3601599  40.4937553  32.7390575  51.4026737  41.5754032  33.6578870
  51.8007660  39.2426825  31.2543964  52.5682878  38.6366415  30.7730174
  51.0346460  38.5345340  31.5701318  51.2946224  39.8654556  30.5167866
  54.0326071  41.9337273  32.6990128  53.5909748  43.1054020  32.6761723
  54.9259901  41.6036320  33.6897492  55.2500916  40.6475401  33.7206554
  55.4758167  42.4603271  34.7205162  54.5834160  42.8859568  35.1793981
  56.1363792  41.4961481  35.7260036  55.3334522  40.8425808  36.0669637
  56.9128036  40.8983326  35.2486277  56.8153667  42.1751785  36.8418241
  58.0238342  42.5040197  36.8408108  56.1187363  42.4720907  37.8803802
  56.6263390  42.9442501  38.6148882  55.1094723  42.4399805  37.9015183
  56.5475988  43.4228849  34.2423606  56.6495991  44.4703627  34.7588038
  57.4437761  42.9354191  33.3504725  57.4988890  41.9531250  33.1220722
  58.3331585  43.8516951  32.6682091  58.9558125  44.3545723  33.4081507
  59.3336678  43.0919218  31.7447305  59.7298670  42.2087002  32.2457743
  58.7175560  42.7681780  30.9058595  60.5517864  43.9675951  31.3169098
  60.2703905  44.8250771  30.7056451  61.0466337  44.3443203  32.2120667
  61.5944338  43.0719709  30.5663562  62.4858093  43.6983776  30.5322385
  61.7734098  42.1689892  31.1500430  61.1484766  42.6335669  29.1352654
  60.1315737  42.2430134  29.1736126  60.9703016  43.5633421  28.5950136
  62.0649195  41.6768694  28.5711408  61.8304586  41.4665890  27.6115012
  62.9536581  42.1564198  28.5877085  62.0496798  40.8542681  29.1569567
  57.6605463  44.9021864  31.8430734  57.8626108  46.1148691  32.0311236
  56.6647339  44.5032358  31.0423279  56.5246105  43.5030317  31.0499263
  55.7358646  45.4224110  30.4153204  56.2793303  46.0432625  29.7030783
  54.7249746  44.5786905  29.5745349  55.2758884  43.9537239  28.8716674
  54.1482258  43.8618469  30.1589966  53.7335205  45.4474497  28.6663985
  53.3737326  46.2208796  29.3449736  54.4127655  46.1412334  27.5591278
  53.5908556  46.7096233  27.1238184  55.1231527  46.9343805  27.7923083
  54.8414564  45.4262638  26.8568850  52.6128578  44.5548105  28.3079505
  51.9310617  45.2394056  27.8033853  52.9625416  43.7900019  27.6144862
  52.1036053  44.0831614  29.1483736  55.0657940  46.4851189  31.2567949
  55.1255846  47.6332283  30.8884764  54.3703270  46.0678244  32.3298073
  54.4106722  45.0665045  32.4556422  53.7021017  46.9811296  33.2239151
  53.0045700  47.6278400  32.6916265  52.7824497  46.2485313  34.1952682
  53.3854771  45.6125069  34.8432946  52.2990465  47.0576763  34.7427249
  51.5735388  45.4119062  33.5434628  51.8051100  44.8126745  32.6628971
  51.1426735  44.4350433  34.6726775  51.9946575  43.7816095  34.8604536
  50.7139015  44.9659967  35.5225849  50.2962065  43.8379526  34.3334556
  50.4105759  46.2789154  33.1673884  50.1044703  46.9886971  33.9358997
  50.7266712  46.8103838  32.2697663  49.5594311  45.6310081  32.9579377
  54.6621084  47.8890991  33.9433622  54.4198465  49.0929317  34.0229940
  55.7657003  47.3157501  34.4580030  55.9086990  46.3261843  34.3151402
  56.7650270  48.0826616  35.2115297  56.1480474  48.6876392  35.8759403
  57.5856733  47.1017075  36.0230684  58.1680155  46.5276766  35.3023314
  58.4335375  47.8846121  36.9937181  57.8033876  48.5223532  37.6136303
  59.1468906  47.2636461  37.5355959  59.0825224  48.6335182  36.5397835
  56.7495155  46.2426567  36.7336035  56.3775492  45.5585194  36.1721754
  57.6031399  49.0874195  34.3292785  58.0603743  50.1470280  34.7986150
  57.5678539  48.8543272  33.0374146  57.1851683  47.9824686  32.7005029
  58.1931067  49.6614981  31.9625330  58.9339113  50.3242302  32.4098563
  59.0057707  48.7674618  31.0934401  58.3229876  48.0610895  30.6212735
  59.4561768  49.3392181  30.2820635  59.7615862  48.2667446  31.6985250
  57.2571850  50.6174469  31.1244535  57.7375793  51.6252041  30.6839871
  55.9543037  50.2683210  31.0229039  55.6597614  49.3906069  31.4265990
  54.8857212  51.2154818  30.6428504  55.0366020  51.2632990  29.5644045
  53.5341120  50.5769396  30.8555102  53.4330416  50.2215672  31.8809843
  52.7156973  51.2397051  30.5743694  53.3195925  49.4924355  30.0324988
  53.9872265  48.8199568  30.1862717  55.0071859  52.6423073  31.2630725
  54.9951172  52.8789616  32.4760795  54.8793840  53.6642265  30.3980494
  54.6985197  53.4781122  29.4219589  54.7073126  55.1758432  30.7225561
  55.5130386  55.3699875  31.4305210  54.9519730  56.0636139  29.4670033
  54.1224432  55.8173037  28.8042021  54.9794436  57.1189165  29.7384477
  56.2334108  55.7942820  28.6278677  56.9382572  55.3437185  29.3266416
  55.9802055  54.8177862  27.3867989  55.8656406  53.7825537  27.7081418
  55.0768518  55.0592375  26.8266559  56.8796444  54.8535347  26.7721224
  56.8150234  57.0723772  27.9599714  57.0655489  57.9105377  28.6102271
  57.7319574  56.8855476  27.4010277  56.1147785  57.4229002  27.2017527
  53.3629513  55.4899025  31.3724804  52.2872925  55.0990486  30.8655739
  53.2955408  56.2006855  32.3677731  52.1834993  26.8706703  30.7353759
  60.6566763  15.3155434  15.4103100  23.4025693  23.1974387  20.5797982
   7.2808349  23.7062073  52.9585600  64.8906279  43.3128452  27.7003670
  31.5561867  53.2673740  46.5703011  26.7135882  53.8652849  65.2302408
  25.0375175  52.1209431  54.2535686  51.6388321  51.7985487  21.0843706
  51.6880751  52.4578476  21.7765665  51.2407875  52.2572899  20.3445387
  20.7653356   8.3255959   7.7195501  20.8141589   8.1580102   8.6606997
  20.2644801   9.1380334   7.6466030  23.8762116  32.2935343  26.8363667
  23.5516262  32.4145436  27.7286863  23.1784558  32.6379538  26.2789202
  14.1774380   1.9036186  45.1608944  14.6361423   1.5348928  44.4059992
  13.3336973   1.4517389  45.1726246  44.5910883  13.9045906  47.3895502
  44.7130585  12.9729497  47.5723076  43.7265301  13.9575696  46.9821644
  61.0065985  69.5332861  54.4715929  60.7483959  70.4176760  54.2119455
  61.2650633  69.1092730  53.6532784   5.3415060  68.7650013  20.1775241
   4.9112254  68.5476160  21.0044670   4.8340878  68.2982063  19.5135522
  16.2722361  21.4570045   5.0813890  16.2358522  21.7249560   5.9995997
  15.6785131  20.7081842   5.0267017  78.0929375   4.7154120  12.4125671
  78.2936287   4.5279852  11.4956009  77.2464466   5.1614928  12.3861456
  37.7098608   2.0577544  12.9619503  37.0804787   2.7788341  12.9744089
  38.2054758   2.1583594  13.7746477  28.6446285  40.2890110  65.4354954
  29.4227195  39.8322248  65.1158762  28.1712794  39.6296191  65.9428167
  34.8094797   6.0391426  11.8598688  35.3246689   6.2258339  12.6446986
  35.4249120   6.1556268  11.1360550  42.0589161  21.2224841  20.3092122
  42.1036530  20.2724504  20.2012014  41.4931870  21.3505936  21.0706377
  17.2201121   0.2630150  15.6154191  18.1226313   0.5711225  15.5332041
  16.9816303   0.4592480  16.5214264  66.6876268  16.7443037  60.4758453
  66.6052008  16.6049731  61.4192533  67.1360826  17.5862062  60.3963518
  32.8529048  20.4131508  42.4651766  32.3818421  20.9697270  43.0852985
  33.5241413  19.9809563  42.9932690  31.3633800  58.2463169  34.9161196
  31.7952681  57.6126575  34.3432498  30.4824066  58.3361864  34.5527411
  65.1790428  46.3528299  17.4522734  65.9228182  45.7510662  17.4220538
  65.4382658  47.0824623  16.8895352  62.6715517  31.4422059  54.9623966
  62.0667124  32.0741487  54.5737457  62.2531748  30.5927706  54.8222065
  21.0705757   0.3668497  24.2306066  20.6678605   0.5012484  25.0885057
  20.7486653   1.0943419  23.6982894  44.9694300  64.9083471  44.8959589
  44.1330051  64.4553804  44.7889996  44.7834349  65.6108189  45.5189943
  78.8387156  71.1620522  29.9772811  78.5926676  71.7973900  30.6496167
  79.7951984  71.1400652  30.0071049  10.3105295  11.8636727  31.4528418
  10.6112242  11.8226182  32.3606586  10.9446740  11.3368917  30.9664321
  73.2580662  14.0430129  30.3060365  73.0184984  13.4536278  31.0212064
  72.4611759  14.1191256  29.7812510  28.1644297   6.8761170  18.2661831
  27.3819923   6.6618949  17.7581155  28.3078718   7.8084081  18.1034267
  38.9804196   8.3266836  45.9519386  38.1222153   8.4992921  45.5647373
  39.1782141   7.4237949  45.7031393   0.5725101  60.8358335   1.3421030
   0.9430268  61.1976433   2.1471137   1.2854125  60.3248310   0.9588581
  63.3503962  13.3275759  15.6682098  62.7803564  14.0958405  15.6357491
  64.1980839  13.6701071  15.9516418  77.1744156  16.1476541  64.9088335
  76.9581413  15.6162870  65.6750631  78.0564451  16.4748394  65.0854826
  54.3251848  59.3034029  24.1132212  53.5254431  59.5441484  24.5808625
  55.0341702  59.5661736  24.7001791  28.9112949  74.7594213  40.1163769
  28.6679649  73.8386011  40.0209236  29.6700311  74.7474146  40.6998253
   3.3958706  65.7332134  48.1430340   2.4396697  65.7041168  48.1103992
   3.6038348  66.6617727  48.2468033  32.3451304  28.1154561  21.2232161
  32.3144436  27.3703861  20.6230807  32.1415567  27.7411413  22.0803499
  66.7800379  11.2692106  32.2703266  67.5903654  11.4982045  32.7254796
  66.1246014  11.2064683  32.9650927  46.0490990  10.9136021   6.1315858
  45.4447269  11.3260341   6.7487282  46.1042643  11.5305531   5.4018182
  55.1643515  32.1963811  57.5781965  55.8506680  32.2181034  58.2450724
  54.3706036  32.4618483  58.0426550  73.7315321   9.4514090  34.3586302
  73.4039164  10.0712597  35.0103092  74.1306448  10.0013113  33.6844277
  66.8184185  72.4615908  22.4783802  67.3915625  71.7642260  22.7968478
  67.1348190  72.6465654  21.5941238   1.8516912  57.2440052  20.7166553
   2.2708511  57.7820539  20.0450587   2.3803288  56.4466858  20.7491851
  33.8975263  62.3784161  21.7205358  34.8309278  62.5890017  21.7459989
  33.4626031  63.1835270  22.0013738  67.2834110  41.5689087  57.9891539
  66.8369579  40.7569075  57.7492189  66.7273378  41.9574356  58.6644745
  47.2334146  67.2537565  64.7267532  47.9268503  66.7488956  65.1516056
  47.3977423  68.1581783  64.9936676  70.4904461  74.9647665  20.4007864
  71.1979771  74.3595982  20.6230617  70.3097343  74.7928953  19.4766462
  61.6249990  58.0805874  16.9634390  61.0530329  57.9755354  17.7237368
  61.2967825  58.8646889  16.5233278  81.7772388  22.7885723   0.5716342
  81.5309811  22.8275967  -0.3525227  81.5514278  21.8986392   0.8423025
   5.1953518  36.6431403  13.7689912   5.1597899  37.5901365  13.9037693
   5.4337281  36.5411353  12.8475773  15.1719499  73.7777901  64.2335224
  14.3963790  73.2290411  64.3501186  15.6116295  73.4111643  63.4663868
  12.5039887   4.6182677  26.7203403  11.8897867   5.2395093  27.1115541
  13.2708383   4.6471006  27.2924781   1.6027142  30.8005142   9.8196781
   1.4352502  30.4961085   8.9277571   1.4150843  31.7387295   9.7917408
  71.6022348  31.4486504  31.0984206  71.2068939  30.8797312  31.7589259
  71.9376087  32.1950889  31.5949941   8.3634651  53.6776924  53.9993811
   7.4905592  53.9144039  53.6859560   8.8343298  53.4035158  53.2123947
  68.8353893  77.3862168  59.7803974  67.9358706  77.3160996  60.1000547
  68.8342747  78.1708678  59.2321682  65.0226068  45.0141716  14.4224656
  65.0070095  44.5117855  15.2370787  64.1804123  45.4687452  14.4052470
  76.2944031  43.0092144   9.6491653  76.0606337  43.1292629   8.7287468
  76.1802959  42.0716953   9.8049504  41.6612291  70.4664087  54.7383308
  40.9351444  70.9184599  54.3085861  42.1468496  71.1614847  55.1824808
   5.4356617  73.0334139  17.3160207   6.2796980  73.3118963  16.9606590
   5.2471316  73.6660576  18.0091643  16.3741827  60.2619743  42.9346323
  17.2950232  60.4902697  42.8074932  16.3178992  59.9958801  43.8523817
  11.2685275   1.5861344  55.2257824  11.6288960   1.7692471  54.3581247
  10.4789221   2.1248890  55.2757645  70.4813862  13.1145322  23.5665107
  70.8639574  12.4447334  22.9997277  71.1693811  13.3119893  24.2020464
   0.8135357  74.1244268  55.4431152   0.2848800  73.9271164  56.2163019
   0.5772986  73.4449291  54.8116779   5.2172506  77.8811264   7.7338380
   6.0998136  77.9333973   8.1006914   4.8557204  77.0713234   8.0940479
  33.0750513  57.1306086  12.6460457  32.3584461  56.8981838  12.0555472
  32.7185369  56.9884062  13.5229194  55.8990288  14.3963218  52.7433014
  56.2380552  14.9094439  53.4767866  56.0042095  14.9675786  51.9824934
   2.5505674  64.2816448  32.3459387   2.2962794  64.6397448  31.4954495
   2.0772997  64.8173332  32.9825592   0.5173258  52.5310802   3.0117506
  -0.1077948  51.8214941   2.8636098   1.3669831  52.1529531   2.7851778
   7.2586721  26.7572093  33.4341240   7.2258252  27.3629427  32.6936913
   7.9147899  26.1071348  33.1828356   4.1226840  67.3457193  35.5115104
   3.9771250  66.7307806  34.7925544   4.7263667  67.9958248  35.1521206
  44.4792509  34.0394139  60.1323128  44.2616081  33.2811785  59.5901489
  44.1759586  34.7919655  59.6244621  61.7061138  25.1994228  20.2906466
  62.3817301  25.7251811  19.8624504  61.0049915  25.8217573  20.4839468
  24.1188550   6.7289013  21.2012792  24.1405559   5.8593208  21.6007662
  24.6082163   6.6295940  20.3846407  77.1624184  67.8044558   5.6475931
  77.6215887  66.9663048   5.7014382  76.4941692  67.6687431   4.9758378
  55.5967665  15.0192535  63.0801153  56.3196325  15.6317556  63.2162809
  55.4384279  15.0416243  62.1363688  47.8066540  55.1563120   9.1798675
  48.5248470  55.1601601   9.8126543  47.3090410  54.3653297   9.3871492
  11.5691936  63.6502504  13.8289225  11.6275311  62.8457499  14.3442941
  10.8423984  64.1339445  14.2213988  40.9749794  24.6404696  65.8557606
  41.7109680  25.0318003  65.3852129  40.6895351  23.9183831  65.2959919
   3.0498284   4.0645346  57.0377398   3.3160865   3.8807285  57.9385996
   3.7961236   4.5276028  56.6571569  34.5737171  68.5896349  52.2881842
  34.6664262  68.9418459  51.4029837  33.6572576  68.3189392  52.3434877
  60.0368547  20.3502560  58.8510942  60.3118277  19.6868014  59.4839048
  59.4597960  19.8815453  58.2481480  13.6675882  61.0481167  30.3330398
  12.9601204  61.3775349  29.7787786  13.9249039  60.2206516  29.9264431
  59.7116804   6.5431863   4.1823515  59.0850878   7.0846647   3.7023395
  60.5690098   6.8690306   3.9084023  72.7219439  22.4131536  18.6353278
  72.2739267  21.5724206  18.5421526  73.0951977  22.3892927  19.5164335
  19.7084880  49.6692038  12.4129331  19.0732300  49.5797062  13.1233335
  19.9363124  48.7690258  12.1805382  34.4418216  24.6068430  40.2819157
  34.9849820  25.3053737  40.6469727  33.8654947  24.3505096  41.0018969
  69.3379307  41.4974976  51.5856171  69.2178583  42.3829460  51.9288301
  70.2827930  41.3502693  51.6280270  26.6477180  62.9185534   0.9146988
  25.7580471  62.7675915   0.5954360  26.5719700  62.8684235   1.8675792
  63.3632565   3.9198884  52.4411869  62.7082539   4.3629724  52.9805231
  64.1669416   3.9595145  52.9595947  79.3901205  74.7198725  22.4403286
  79.7230434  75.4861975  21.9732690  79.7029495  74.8319149  23.3380008
  24.6431947  16.0272932  51.1019659  24.0744352  16.5864503  50.5727339
  24.1461658  15.8718848  51.9051123  66.7814636  51.2451410  24.4893217
  67.2473907  50.8481598  25.2252221  67.2391987  52.0712614  24.3336296
  61.0238266  37.0786452   3.6306712  60.5751038  36.7510915   4.4101530
  61.2006235  37.9990649   3.8251066  61.2427568  70.5468178  28.3262801
  62.1030378  70.1271582  28.3201742  61.2919235  71.2040043  27.6320720
  57.2444963  58.7954426  22.3997736  58.0435133  59.2282200  22.7006316
  56.5865135  59.0241098  23.0562806  80.3140926  59.1285276  26.4530516
  79.5895243  59.7057199  26.6940594  79.9001169  58.4134197  25.9698534
  71.5116549  64.1017151  28.7740874  71.2821198  63.2373333  29.1152549
  70.6696177  64.5324421  28.6268592  42.0929575  43.7658834  55.0579453
  41.3822222  43.7919521  55.6985807  42.8345585  43.3971596  55.5378389
  55.6551600  41.4312363  45.4050207  56.4625978  41.3708639  45.9155416
  55.3932428  40.5216408  45.2626324  42.1492958  16.0940278  58.5074711
  42.2344923  16.7178774  57.7865124  42.6545429  16.4827335  59.2215204
  32.5597930  13.8809156   1.0903390  33.3094668  13.2889462   1.0287599
  32.9089522  14.6666145   1.5110473  66.1117935  52.8716040  10.6078553
  65.7643795  52.3611069  11.3392425  66.9031525  52.4027205  10.3430271
  10.6389320  54.3718338  12.8027105  10.3991854  53.4487724  12.8846049
  10.9522796  54.4589472  11.9024575  75.4668427  56.6403151  15.6223094
  75.0327158  55.8861065  16.0209799  74.9676704  56.8092203  14.8232281
  61.4324951  52.1584368   7.1494180  61.7588711  52.7717161   7.8079003
  60.8147812  51.6028833   7.6248348  35.8341408  68.5614204   8.2473963
  36.1034966  68.8298035   7.3689598  35.5435538  67.6554489   8.1424844
  47.7266121  44.0739107   1.6110890  48.1648207  44.1077852   2.4614167
  47.0762920  44.7752714   1.6486718  58.8039875  66.4776182  20.1272058
  58.4893990  67.1776533  19.5551753  58.3966017  65.6838131  19.7805989
  58.1941795  45.6922626  58.0685282  57.3223686  46.0798693  58.1455517
  58.5917997  45.8240891  58.9292002  76.3642788  25.1498961  31.0913348
  77.1129227  25.6639075  31.3939142  76.5625525  24.2542219  31.3646197
  68.9399099  21.8051791  64.8125362  68.3688974  21.1215639  64.4620371
  69.8060608  21.5964937  64.4625807  52.2394943  46.0499144  66.6293335
  52.7835035  46.0229492  65.8422136  51.3429928  45.9692621  66.3037491
   2.9853910  33.8581991  13.2300341   2.8318927  34.4391394  12.4849308
   3.8063091  33.4124780  13.0210888  33.3364582  74.7809553  15.7410812
  33.5142422  75.2937746  16.5295231  32.8018427  74.0483999  16.0473204
  43.4753084  19.6687531  44.8266506  44.3774509  19.9011648  45.0465488
  43.5578442  18.9165843  44.2404270  20.6093621  28.0669928  15.2890861
  20.1623440  27.2251773  15.3771281  20.8186960  28.3221436  16.1875904
  71.2450790  61.1530304  34.8230910  70.4619455  61.0405922  34.2843080
  71.9698381  60.9153748  34.2447519  39.7874689  57.4267960   7.5031269
  39.8568535  56.4825487   7.6439124  39.0151930  57.6876593   8.0048949
  23.4162998  62.5152206   8.0434698  22.8021836  62.9811907   8.6108881
  23.4923220  63.0693245   7.2666687  76.1174631  65.3500462   8.9443636
  75.7303953  66.2212801   8.8585567  76.1612749  65.0180483   8.0476528
  76.1302233  36.5545607  33.7789249  76.9110394  37.1081591  33.7881970
  76.1526394  36.0947633  34.6181583  54.9730825  21.5995359  48.5996199
  54.5461273  21.0817409  49.2821360  54.8941517  22.5046229  48.9009905
  46.4635181  70.3012753  31.9299436  46.5933609  69.8504877  31.0955811
  45.8429050  69.7496605  32.4061656  64.5376110  37.2330523  41.7819738
  65.0195694  37.1323061  40.9611225  64.2839289  36.3417578  42.0217133
  15.9927189  74.8304653  14.1674078  15.9369695  74.3032980  13.3704007
  16.7111492  75.4407501  14.0011454  70.2187681  62.8753567  67.1442318
  70.1978064  62.8968859  66.1875057  70.7522631  62.1090555  67.3549271
  52.4859428  42.4736357  65.1299763  53.3742619  42.1808243  65.3334141
  52.6071930  43.1976795  64.5157337  69.5830345  67.8666449  10.3463292
  70.4307652  67.4627304  10.1607585  68.9414454  67.2483873   9.9965358
  59.3162918  15.4143059  55.0242710  59.4995070  14.4753718  55.0569773
  58.7734509  15.5253637  54.2437458  78.6333847  49.7097683   0.2106148
  79.1588449  50.4240465   0.5710786  77.9647541  50.1468277  -0.3167769
   9.3900371  62.1766520  22.6278329  10.0811839  62.0178938  23.2707500
   9.0472174  61.3063049  22.4248576  52.5963354  20.5940342  55.2812958
  51.8173027  20.9072948  54.8217201  53.2126665  21.3248444  55.2335310
  53.0691910  56.4201355  44.4042921  53.5289478  55.5806875  44.3907213
  52.2533751  56.2388849  44.8710012  82.4258327  70.9409046  17.5662744
  82.0740414  70.5108500  18.3457172  82.3465919  70.2844381  16.8741727
  52.8762388  22.5679660  51.5904045  52.3621082  22.6124549  52.3965836
  52.3698139  21.9949865  51.0146761  64.5007467  16.6177547   8.8589787
  63.7768078  16.2594533   9.3725574  64.5235920  17.5458157   9.0922463
   4.8247573  68.7357521  31.7697716   3.9499396  68.3863211  31.6000009
   5.2643383  68.7041664  30.9200644  40.5585480  33.7471581  18.7219608
  41.2326813  33.8140845  18.0457258  40.8989477  33.0964732  19.3359363
  69.3755865  70.2006674  17.0886815  69.0043497  70.9915400  16.6976166
  70.0957918  70.5181932  17.6333976   4.5951638   6.7242330  54.6274662
   5.1739711   6.6990840  55.3894281   3.7155113   6.7996001  54.9972820
  11.5684652   5.0267512  14.2921519  12.0131218   4.6232918  15.0376260
  11.9690204   4.6183774  13.5246766  69.7844458  34.2029524  16.2761164
  69.5562983  34.0693617  15.3561521  69.8186255  35.1540208  16.3787389
  17.9243839  45.7134676  20.6650305  18.1082404  46.6513443  20.6119418
  18.7284398  45.2940607  20.3587270  46.9326544  68.6156607  43.5737181
  46.4298964  67.9391336  44.0273476  46.3923407  68.8501358  42.8191900
  78.9866114  73.2460833  18.5069799  79.3393946  72.9322147  19.3396020
  78.2899094  73.8534832  18.7557936  75.7296848  19.1080999   0.7240241
  74.8233223  19.3513477   0.9126354  75.7916546  19.1368246  -0.2307357
  69.2994690  56.7155886   4.3671978  69.2123270  57.5640249   4.8017004
  68.6705685  56.7499113   3.6464068  12.1288526  16.8377280   4.0085438
  11.2540460  16.4767504   4.1522080  12.2006357  16.9204259   3.0576283
  69.5209837  54.7301483  11.6086853  69.4515848  55.6240606  11.9438517
  69.1410208  54.1856623  12.2981751  15.6529617  38.7701392  33.2893205
  15.2087116  38.0067658  32.9203558  15.0568366  39.4995165  33.1193924
  32.0522738  73.1290865  11.6243792  31.2713456  72.9333925  11.1066091
  32.5621724  72.3192549  11.6041875  56.3242531   8.4329802  64.9463177
  55.5627537   7.8560954  65.0059748  56.7978477   8.1253159  64.1734791
  13.3154821  64.7435331  11.8557513  13.6300552  65.6097317  12.1145368
  12.6415718  64.5307207  12.5013423  10.5772233  45.4712963   8.9279783
   9.8140061  45.2896214   9.4763643  10.9050894  44.6069050   8.6798614
  43.9418173   4.9599755  14.1339540  44.0535927   4.3028146  14.8208869
  43.6729288   5.7511449  14.6008408  35.0144839  35.9685659  55.0824594
  35.0607967  36.9018507  55.2899790  34.1573071  35.6931806  55.4074907
  11.3864529  23.4917259   5.6981802  11.0211563  24.1739345   6.2615466
  11.5668738  22.7624488   6.2913376  11.8720853  10.6371880   7.6108044
  12.1368980  10.3138936   8.4719592  11.9565821   9.8782349   7.0336705
  74.4527149  25.9585619  47.9553366  74.4965506  26.9126844  47.8923941
  73.6962318  25.7900929  48.5171080  20.7832789  14.6972811   0.5802016
  20.4459405  14.5187616  -0.2976167  21.7306232  14.7680998   0.4629133
   1.3397615  41.3506031  28.5280704   0.6776797  41.7636585  29.0823841
   2.1489745  41.8196821  28.7314749  57.6145172   7.8725284   9.7874814
  57.9551888   7.0523053   9.4305396  56.6684055   7.8176016   9.6530002
  62.2042942  32.9327416  64.2309856  62.2992563  33.2118154  63.3203077
  61.5685320  33.5436177  64.6036339  19.3044269  68.7725496  13.9029372
  19.4194961  68.0016041  14.4584799  18.7185073  68.4795618  13.2050228
  73.5615110  16.1462605  52.4386549  73.7008047  15.7583666  53.3025837
  74.0451670  16.9718277  52.4659729   2.1638288  33.8830209  37.0519185
   3.0032551  34.3009186  36.8596768   1.5084265  34.5179200  36.7628145
  16.8161833  36.9392681  12.3382938  17.6054990  36.5274167  12.6898479
  16.1886060  36.2214184  12.2542310   3.3087987  20.6000257  17.4051380
   3.5006106  20.0643706  18.1748879   2.5365070  21.1081505  17.6533401
  64.9252415  35.2262139  66.9508791  64.1167164  35.7065225  66.7724895
  64.6382999  34.3289900  67.1208286  38.8885570  11.3953745  66.3336229
  38.1297398  11.0158336  66.7767715  39.5816064  10.7447267  66.4457512
  80.5074310  40.1030302  30.6231642  80.8580685  40.7330847  29.9936271
  79.7948027  39.6680045  30.1550364  71.2042284  61.4280939  29.7607875
  71.7627668  61.0655403  30.4484081  71.0029316  60.6811523  29.1970563
  59.7839069  71.6992712  15.5163443  59.5770836  72.2853136  16.2443602
  59.2025375  71.9805336  14.8098540  30.6071091  51.5157509  20.0042033
  30.2723789  52.0196819  19.2624223  30.9720802  52.1739006  20.5956960
  27.8677225  20.7054949  56.6737223  28.4909487  21.1041403  57.2810936
  27.4240494  21.4481711  56.2640619  81.3009357  21.8301392  52.0295286
  80.8242989  21.8958354  51.2020397  81.1823273  20.9204412  52.3026800
   8.8989878  26.1530542  21.3081384   7.9632962  25.9712052  21.3955688
   9.3160558  25.2931046  21.3608027  68.5584736  22.2660804  67.4285698
  68.8884401  22.1943760  66.5329075  68.5062695  21.3616776  67.7377081
  34.0250993   3.0058515   5.9844637  33.4947944   3.7992650   5.9102768
  34.9216580   3.3255798   6.0854000  34.1925573  60.8402729  29.0597010
  33.5662270  60.1533699  29.2879772  34.6189713  60.5209351  28.2644486
  68.7030554  71.9887686  36.7019510  67.9739189  71.9451666  37.3205733
  68.9947891  71.0816288  36.6112685  52.2947264  59.9669933  67.0073318
  53.2001352  59.7183752  67.1934891  51.8308783  59.1342878  66.9196939
  22.1904659  73.5668755  36.5790606  22.8318501  73.0717707  36.0694218
  21.9224024  74.2796421  35.9991121  75.4968405  23.9392114  36.0584140
  75.5033255  23.7140846  36.9887400  75.2011013  24.8492575  36.0342646
  62.7605343  15.6832170  13.0284381  62.0997143  15.7360542  13.7189102
  63.4159517  15.0750601  13.3702123  20.9325123  74.7958851   7.3743826
  20.6932616  75.4972887   6.7685586  20.6793666  75.1269579   8.2360899
  76.6757345  57.4350309   9.2017329  76.3380146  57.4100399   8.3064395
  77.5007486  57.9155350   9.1331816   6.9966215  72.3737955  12.8130114
   6.4163184  71.9755077  13.4617388   7.8552401  72.3871899  13.2358909
  16.6847575  72.1794128   1.0279031  17.4435389  71.8348265   0.5570065
  15.9363449  71.9489384   0.4774557  50.8792067  58.2036972  47.1788597
  51.3046551  58.7984991  46.5612555  50.0855875  58.6659431  47.4485493
  75.9585571  13.3842623  53.5972309  76.1058855  13.8820934  54.4014025
  76.3476038  12.5272155  53.7714291  19.3954158   8.2571018  22.2631145
  18.9529836   8.5328895  23.0658770  19.2013597   8.9504546  21.6323733
  56.1013508  23.7614131  59.7602367  56.2327623  24.0350032  58.8524294
  56.0603189  22.8059864  59.7188950  18.4871745  63.3152151  41.9477844
  19.2929935  63.8266134  41.8745708  17.9157960  63.6697149  41.2665462
  66.4462137  16.3874960  14.9315286  65.8959389  17.1688521  14.8775399
  66.0051441  15.8276057  15.5704451  37.4899220  59.4396114   4.1485006
  37.0339203  58.8378382   3.5601470  37.2626042  60.3107262   3.8233587
  12.2022974   3.8955972  57.5366926  12.7245915   4.1972896  58.2799435
  11.5293169   4.5676056  57.4283791  79.5669317  23.6343503  33.6148357
  80.4412460  23.7035298  33.9982748  79.0645933  23.1285310  34.2536116
  38.0466175  70.6113911  13.8988364  38.9769435  70.3960609  13.8328159
  37.7033830  70.4633236  13.0176461  47.7509499   6.4992023   7.8808761
  46.8960714   6.5746522   8.3048171  48.1805563   5.7745612   8.3353668
   6.2001067  32.6864457  51.5611076   5.4168528  33.2313037  51.6377592
   5.8698583  31.7882252  51.5803146  79.0919447  34.8181272  44.6283627
  79.4314766  35.2891374  43.8673735  79.0888453  33.8994312  44.3596220
  32.1268344  69.3212223  27.4063110  31.5990877  68.8891935  28.0779266
  33.0308723  69.1101980  27.6395893  53.0373955  26.2866902  65.4859591
  52.6523113  27.0825315  65.1191044  53.9525175  26.5160131  65.6477880
  32.4835706  44.6076775  11.9752192  32.8667045  43.8639927  12.4403822
  31.5544820  44.3901062  11.8997645  14.9725938  52.2341299   3.4474459
  14.4215024  52.9429054   3.7793624  14.9523377  52.3403072   2.4963684
  64.8179388  44.5607710  22.5111008  64.3561792  44.3314981  21.7045999
  64.6872759  43.8057709  23.0848050  31.5562797  59.5044708  37.2632265
  31.5768504  59.1978502  36.3566971  31.0303640  58.8514996  37.7250457
  31.8946981  14.5828199  56.4529610  32.7468348  14.3441284  56.0881042
  31.8212414  14.0602982  57.2515917  60.1067114  24.8445034  24.8049641
  60.3671122  24.5893145  23.9199185  59.3928146  25.4685545  24.6740222
  10.4454768  74.3876839  24.7057152   9.8991036  74.5088673  23.9291692
  11.0805297  73.7187910  24.4497466  14.0556455  23.1957078  64.5657730
  13.3000720  23.6953926  64.8750544  13.9829361  22.3514342  65.0109053
  79.7342777  36.7257190  21.1728406  79.1948700  36.3130283  21.8473411
  80.3112316  37.3171020  21.6561818  54.7377396  58.9334106  47.8429413
  54.4458055  59.7744799  47.4913597  54.0046120  58.6302376  48.3785152
  61.5058136  30.2050853  65.8911514  61.3593149  30.5986762  65.0309992
  60.7273293  29.6699214  66.0453939  21.4979362  64.0501213   4.9588490
  21.1287189  63.2117033   5.2362782  20.8338475  64.6958637   5.2001613
  81.5997982  71.1364079  29.9044251  82.1632957  71.5538692  29.2529464
  82.0452023  70.3159475  30.1158357  62.0135307  27.8468847  34.6907592
  61.2744713  27.2387195  34.7033858  61.8835211  28.3653593  33.8967085
  60.1020193  73.4747696  53.8169622  60.2481890  74.3272543  53.4069204
  59.2137671  73.5278082  54.1697025  58.9755011  10.5982435  38.3028579
  59.2488384   9.7807550  38.7190676  58.0198622  10.5863225  38.3562088
  34.6555853  32.1821427  10.5278432  33.7909293  32.5068927  10.2765703
  34.5978308  32.0551229  11.4748180  46.9892788  60.5988503  11.0461807
  47.1133661  60.2968311  11.9459701  46.5856457  59.8557949  10.5976439
  78.8552380  28.6694789   1.0380296  79.3401718  28.3340573   1.7920598
  78.4995890  27.8879261   0.6150408   3.9992777   4.4879723  59.5688534
   4.1894147   4.1970286  60.4607248   4.5377883   5.2706987  59.4523335
  82.2253418  31.1783886  65.3458834  81.3393402  30.9845400  65.0398540
  82.7838135  31.0047984  64.5881176  29.2085338  73.0126047   7.3675352
  28.9911342  73.7396908   6.7841727  28.4833860  72.3965979   7.2629952
   1.3349408  34.3832517  42.3266602   1.1367173  35.2621937  42.6497650
   2.2902162  34.3581557  42.2714281  14.6172702  76.8237972  40.2384377
  14.1162038  76.1476564  40.6945038  15.5313218  76.6167927  40.4330969
  71.3435888  24.5592308  65.2051592  72.2464323  24.7994757  65.4134750
  70.8173370  25.0099969  65.8655405   2.4757022  72.0088339  30.0311208
   2.9314476  72.8336287  29.8630691   2.2020385  71.7056990  29.1654134
  75.8379984  16.2412286  33.6733818  75.4752874  16.1484540  34.5543265
  76.7035389  16.6264403  33.8100719  78.4746885  25.3814030  59.6438789
  78.9129543  25.0590301  60.4314280  78.9288187  24.9466419  58.9220905
  15.8982158  56.9237328  44.2898464  15.8881664  56.0394001  43.9236689
  14.9747086  57.1675444  44.3524742  70.0356007  28.0472445  35.1155162
  69.8598242  27.1943331  35.5128574  69.9131203  27.9040813  34.1770434
  38.7470484  19.1595709  16.6600561  39.0472078  19.9567056  16.2233508
  39.5461965  18.7577307  17.0008183   5.7556832  17.8402078  12.3275411
   5.6533909  17.9490173  11.3820636   6.5753508  18.2897973  12.5330830
  39.9422336  13.9932513  13.3853185  40.2555418  13.6187625  12.5620174
  39.0370274  14.2462981  13.2042027  24.4332051  52.4220562  12.8201199
  24.2764854  53.3632088  12.8969777  23.5645294  52.0452595  12.6799178
  49.5081949   1.6181311  45.2957773  49.5567036   0.6971361  45.0395632
  49.2124701   1.5982819  46.2059355  41.0362005  70.1737976  21.2330818
  40.4364395  69.4575739  21.4417505  40.8146477  70.4175806  20.3343534
  81.8812180  75.8186483  28.7415743  82.3655128  75.0413465  28.4632015
  81.4717674  75.5625153  29.5679998  34.4537544  22.9789853  12.7345109
  34.9297667  22.3810577  12.1582055  34.4680429  23.8178754  12.2737598
   8.7350404  74.3399668   2.5522584   8.6595601  74.3607092   1.5982646
   8.8758451  75.2534103   2.8012970  63.3367300   1.1995532  48.3259630
  62.3801136   1.2260345  48.3463478  63.5446739   0.3453430  47.9473925
  60.7079220  38.2260942  41.4863014  60.6588268  38.0224347  42.4202919
  59.8436880  38.5773993  41.2720108  20.9227157  56.7006874  28.1924844
  21.3706779  57.3805046  27.6890826  21.5936899  56.3589001  28.7834215
  63.4989548  31.3321209  30.6007504  62.6861477  31.7940426  30.8061862
  63.4499931  30.5231380  31.1100411  19.9708056   0.7080944  66.0228920
  20.6268334   1.2803049  65.6248522  20.1852846   0.7104497  66.9557476
  11.9313145  59.3238640   9.3527097  12.5710416  59.8996210   9.7716171
  11.1037207  59.8009586   9.4135350   4.4283465  31.4300799  46.3361263
   5.2756345  31.7198277  46.6743326   4.1287768  30.7768393  46.9683981
  17.3211110   2.8574380  19.4643176  17.1179879   3.4623417  20.1778054
  18.1892383   3.1253678  19.1629863  70.9679651  16.2779582   5.4436660
  71.2224340  15.4502249   5.0358254  70.6900787  16.8297434   4.7125396
  68.4103441  13.3889449  21.6463780  68.1354761  12.4721408  21.6586542
  69.0791512  13.4476304  22.3286438  51.8433619  69.8351526   0.0454928
  51.2750244  69.7436476   0.8102505  51.3705540  70.4323530  -0.5341999
  30.4932642   6.3101715  35.9330535  30.6733680   7.0537490  36.5082812
  29.7602463   6.5996510  35.3898048  69.3686533  75.9266472  12.2841418
  68.4989071  75.6841946  11.9663477  69.6512747  75.1751947  12.8053689
  31.3946342  76.6455507   0.3760046  31.6149974  77.4460793   0.8522674
  31.2370634  76.9368410  -0.5220784  43.3201790  46.2730837  19.1922843
  42.6074743  46.5917873  18.6384666  43.5975647  47.0413208  19.6913791
  16.7923033  65.0352287  19.9438119  17.7283347  64.8427916  19.8886168
  16.4975834  64.5687008  20.7259417   4.9891484  34.1321325  35.0918269
   5.6200850  34.7618175  34.7430468   4.2813411  34.1203928  34.4475436
   6.8533391  59.6259975  15.4335356   6.7476070  58.7324381  15.1070404
   7.7781326  59.8260498  15.2887321  23.2167459  13.3825934   1.7227328
  23.0876493  12.5633597   2.2006698  22.4818873  13.9344370   1.9904689
   4.8090169   0.3707646  44.0926456   3.9578724   0.7749739  43.9241219
   4.7399545  -0.5026060  43.7070465  32.7044725  43.6820555  26.3484359
  33.4121108  44.1011906  25.8587360  31.9058609  43.9575815  25.8983946
  70.9941959  10.5821693  49.2332649  70.4592228  11.1695325  49.7671604
  70.3595924  10.0457847  48.7580729  34.6534371  73.1197023  36.6153264
  34.6438932  74.0276766  36.3124633  34.3276834  72.6151609  35.8699727
  39.0751719  68.0796862  60.3648138  38.8604164  68.9560652  60.0453377
  39.8412895  68.2095814  60.9237623  61.6915846  54.3612909  30.8127403
  61.4908409  54.3874550  31.7482877  60.8787394  54.6317625  30.3857088
  17.3786116  55.9418535  35.4731655  17.8827465  56.7412329  35.3212857
  16.6404033  56.2232924  36.0136032  21.0057783   4.7803438   5.8183086
  20.2689910   4.3165690   5.4204518  20.7189703   5.6925005   5.8623970
  19.9434125  61.7436123   5.4836589  19.3438447  61.6564751   6.2247103
  19.4732690  62.2956753   4.8588198  33.5254836  39.5205188  39.2308378
  33.2819915  38.9930034  39.9915409  34.0078950  38.9172482  38.6655283
  79.2389679  45.9594917  30.9544015  79.6900940  46.7410898  31.2735105
  78.4885454  46.2985420  30.4664063  77.6636553  36.6077566  41.5437460
  77.8481531  36.4422083  40.6191969  78.4752846  36.9817448  41.8867111
  10.2886331  65.4488468  27.7166486  10.3592587  66.0055447  28.4921050
  10.3676629  66.0540867  26.9793081  58.3676767  50.6847668   5.1703483
  58.4674978  51.4253092   4.5721272  58.1712008  51.0856533   6.0170591
  46.2498903  59.6051359   6.3431752  46.5415668  59.1001463   7.1022165
  45.6237316  59.0321970   5.9005731  16.0874093  65.1367140  32.5968695
  16.5229106  64.9700880  31.7609239  15.4563498  64.4223785  32.6847482
  13.4003174  10.7423282  16.9987297  12.5286698  10.7627964  17.3937535
  13.8333392  11.5277469  17.3331547  23.9810228  33.7798071   6.6319519
  23.8491654  33.6967874   5.6875187  24.8806381  33.4857440   6.7749506
  78.4854507  22.7146411  54.5461702  77.7325249  23.0147004  55.0553846
  78.6177778  21.8087006  54.8254442  71.3626909   3.2100403  44.5762539
  71.6861677   3.9592633  44.0759945  72.1301603   2.8886586  45.0494719
  82.6429272  36.4227438  33.1829810  81.7924404  36.7197847  32.8594422
  82.5662708  36.4694643  34.1359615  44.3531656  44.3982601  53.4827995
  44.3984699  43.5458803  53.0496407  45.2650976  44.6810293  53.5510159
  46.6377401  36.5439272  46.9389343  47.2455215  36.5174174  47.6779413
  47.1750879  36.8206596  46.1967039   2.1079130  50.4625177  35.7358837
   2.8086811  50.2462149  35.1207662   2.1974006  49.8174334  36.4373779
  22.3889542  31.3713861  23.7710190  22.8231382  32.1228838  23.3673286
  21.6684890  31.1630654  23.1762385  26.3158321  53.3198881   8.5980970
  25.3703380  53.3271408   8.4490317  26.6035175  52.4679756   8.2698929
  50.0914764  16.6614008   3.8744327  50.4111624  15.8058548   4.1609174
  50.0341415  17.1772587   4.6786934  15.2136326  43.5220814  58.8796377
  15.7610977  44.3000507  58.7734365  14.3683386  43.8622665  59.1728687
   5.5094814  20.8680868  67.2503138   5.0540322  21.1754036  66.4665079
   5.0613523  20.0553465  67.4845457  62.5311756  43.0906868  59.8580313
  62.5764227  44.0393591  59.7388315  62.3590279  42.9746389  60.7924461
  56.7431211  35.6795692  65.3208303  56.3583422  35.0713301  64.6897793
  56.8005991  35.1770210  66.1334610   0.5196031  15.5667639  54.7371483
   0.9252068  14.7287929  54.9596834   0.4086922  16.0100353  55.5782413
  17.4641979   3.0434364  45.3518009  17.9681015   2.7259097  44.6024752
  16.9466364   2.2877827  45.6299162  26.0623288  52.0942450  27.9557180
  26.8968511  52.2481394  28.3985758  25.6659150  51.3682079  28.4373403
  25.7092476  16.6618884  17.1350086  25.2717876  17.4578881  16.8329418
  26.3003945  16.9609368  17.8259110  62.5645447  67.0764017  32.5770116
  62.0233154  66.5334415  33.1501579  63.2822275  67.3736429  33.1363082
  22.2131848  15.5642498  58.1288242  21.2728405  15.4494321  57.9917145
  22.5999069  15.4263496  57.2641516  51.5116644  55.8999538  27.2125769
  52.0504236  56.2785912  26.5178776  50.6298065  55.8687210  26.8416595
  39.0451455  25.4244018  50.9112740  39.8617077  24.9873590  50.6695032
  38.8241982  25.9583187  50.1481581  61.9497013  63.1509638  13.7519443
  62.6281404  62.5596809  13.4258413  62.0284605  63.9315224  13.2035315
  72.3394537  32.3360801   6.3270748  73.1781769  32.6903534   6.6224867
  71.8255854  33.1067467   6.0857391  46.4726973   0.8986495  54.6837139
  45.6252098   0.4656527  54.5812035  46.2964582   1.6341922  55.2703571
  26.8310952  53.6639547   3.9571023  27.6751351  53.6576128   4.4085336
  26.9948959  54.1515303   3.1498408  69.9746847  24.0885854  51.5811634
  70.4279470  23.7948203  50.7909203  69.5584393  23.2986832  51.9261646
  81.8780899  30.5214190  59.8041201  82.2645569  31.0642076  59.1169071
  82.4009800  29.7196794  59.7985363  55.4894304  34.6129346  17.4060690
  55.9540319  35.1880193  16.7980766  55.1324034  35.2037549  18.0691636
  73.5317755  20.1995873   6.2845153  73.4394503  20.5124807   7.1844071
  73.6588001  20.9943748   5.7664341  17.4730563  61.6767120  64.3561029
  17.3488343  61.9926596  65.2510738  17.8289843  62.4292707  63.8836622
   5.0012720  11.5115893  49.1836786   4.7134122  12.1479535  48.5291481
   5.8585167  11.2199247  48.8733625  48.0671406   9.5684308   7.7949685
  48.2759333   8.6911058   7.4741292  47.3618269   9.8710698   7.2229791
  41.2279415  71.6186237   1.5116940  41.7336464  71.6576815   2.3234633
  40.3177977  71.7163706   1.7915559  31.5493989  17.9915082  56.3438559
  31.5455317  17.2544873  56.9546080  31.7700243  18.7497199  56.8848467
  22.6964831  73.9039278  13.5986519  22.7564549  73.3307552  12.8343844
  22.9441547  73.3463573  14.3362200  60.2979422  35.9394026  64.3126392
  59.8594952  35.3319454  64.9084520  59.8618126  35.8061481  63.4710550
   2.2141224   2.7217278  11.7886996   3.0894488   2.7269790  12.1760082
   2.0823173   3.6189961  11.4824831  32.4135232  52.4110651   2.4256498
  31.8879271  52.1790218   1.6600549  33.1362176  51.7834425   2.4191821
  38.8814020  44.8633718  67.1706581  39.8385239  44.8510695  67.1702719
  38.6306238  43.9987946  66.8453169  74.3026209  32.6992702  50.4897976
  75.1786852  33.0671501  50.3739977  74.4322634  31.9506001  51.0719633
   7.4821413  60.6849432  61.1784077   8.3060622  60.7779217  60.7001400
   6.8403167  60.4534245  60.5070686  17.4915886  31.6332841  16.9338942
  18.4006178  31.8573308  16.7346394  17.5361514  31.1760116  17.7736247
  17.4378109  46.4517975  13.6102772  18.3016217  46.8243837  13.7870288
  17.1413743  46.8996191  12.8179300  47.4230528  70.0200844  65.7239199
  47.3574209  70.9663582  65.5954885  47.3110819  69.8979998  66.6666794
  56.8909502  12.0578051  39.5791531  56.3905525  11.7641807  38.8178277
  57.4773026  12.7316022  39.2350292   0.1050035  39.5521593  57.7044773
   0.9910467  39.6020603  57.3457718   0.2013437  39.0459991  58.5111713
  40.5468607  13.2214689  65.3796101  40.0864887  13.8316667  64.8034620
  39.8505521  12.7132010  65.7956076  56.6381931  20.7892847  55.9369373
  56.3642120  20.1167464  56.5605259  55.8187771  21.1522150  55.6006813
  28.5011339  22.8440738  21.9206190  27.6498699  22.8893852  21.4852738
  28.5131693  23.6037946  22.5027776  58.0329227  29.2137718  41.2882280
  57.1420193  28.9293599  41.4922714  58.5918665  28.6602378  41.8335819
  57.8866673  24.6159124  66.4064693  56.9584751  24.4064593  66.5104914
  58.0699635  24.4398856  65.4836226  12.8154314  14.2568481  18.7058198
  12.2426903  13.9048719  18.0244160  12.8107631  15.2025104  18.5577190
  49.9241734  24.1336393  62.5801754  49.9799490  23.9182901  63.5111713
  50.1304054  25.0673866  62.5375557  78.8701582  75.0276279   2.1568470
  77.9931927  75.0029325   2.5396639  78.9195538  75.8810425   1.7261779
  62.9061365   5.9074461   1.1198498  62.2140551   5.5312014   1.6636236
  62.6703024   6.8314695   1.0374270   4.8625368  46.5601254  16.7854035
   5.2394772  45.7153273  16.5394986   4.8752296  46.5585709  17.7425182
  35.8883357  15.3190494   7.8724951  35.7346463  15.1828933   8.8074136
  36.7841411  15.6527102   7.8231275  11.3461006  49.2687654  18.7565625
  11.4726448  49.3222284  19.7038531  12.0850539  49.7532272  18.3884895
  59.4956398  54.4396877  11.2878740  58.8158512  54.4166899  11.9613659
  60.0168657  53.6527109  11.4466989   7.2241664   6.5595353  16.3274753
   6.6755652   7.2681195  15.9910572   7.7157748   6.9576633  17.0458400
   0.7270350  16.6230762  52.1937037   0.4911361  15.9961092  51.5099669
   0.3940213  16.2327826  53.0017900  13.5440898  30.5443120  30.9652042
  13.1513619  31.3222599  31.3611770  14.4749081  30.7557988  30.8939123
  55.5575132  22.4206114  52.2699261  54.6372318  22.3306704  52.0224857
  56.0116386  21.7591906  51.7478943  80.8684349  41.9644928   8.0752534
  80.0167561  42.1505594   7.6799637  80.9525299  42.6093769   8.7775958
  42.1997070   0.6070799  26.7650056  41.8910456   1.4898133  26.9693089
  43.0740023   0.5634590  27.1522236  32.0239758  57.3189831  24.8307633
  31.6635847  58.1282091  24.4681239  31.7099357  56.6322231  24.2425680
  79.3347883  32.5911283  51.7661524  79.0711021  31.9627571  52.4383545
  79.4668674  33.4105682  52.2429180  47.9064798  31.2700224  64.8337269
  46.9925976  31.1257172  65.0791407  48.3201361  31.5973949  65.6324434
  14.3641818  30.2149391  60.1690960  14.6780539  30.8005118  60.8581638
  14.8644078  29.4084454  60.2938890  56.7318344  60.7348967   7.6470578
  57.1404362  61.2085056   8.3716047  57.4662781  60.4448748   7.1060300
  44.7719479  11.2251532  28.6870861  43.9970207  11.0293579  28.1604123
  45.4068518  10.5535674  28.4378839  71.4182425  10.2965283  54.6456718
  71.5393496  11.1405671  54.2107391  71.4062166  10.5076838  55.5792141
  35.6835628  66.0870790  22.4595499  36.0602689  65.2132273  22.3560572
  35.0725126  66.1726856  21.7277575   3.4696788  41.4626837  51.3803911
   2.8932863  40.8149958  50.9748030   4.3415892  41.0706043  51.3326693
   3.6096817  51.7636156  20.7677078   3.0762628  51.6562510  19.9801993
   3.4430334  50.9721518  21.2796116  16.4939117  54.0581083   8.9001465
  16.4646375  53.1085491   8.7830758  15.5888438  54.3430042   8.7739784
  21.5651441   4.3570718  34.2331433  22.4995136   4.1575366  34.2911959
  21.3547134   4.7650319  35.0730968   5.2712864  48.9123726   8.4679937
   5.9251910  49.5441866   8.1689066   4.4508439  49.2140102   8.0779666
  70.0648832  10.4744220  63.1936646  70.9651327  10.1534247  63.2460928
  69.9012804  10.5766678  62.2561073  74.2722845  53.7488747   2.4285509
  75.1067924  53.3488083   2.1840602  73.7984324  53.8387918   1.6017444
  55.2234459  34.1318321  63.4054899  54.5744228  34.5092392  62.8117228
  54.7475481  33.4484124  63.8773918  49.6919775  74.8536110  19.5815718
  49.0828228  74.2681885  19.1316426  50.1170444  75.3437996  18.8778186
  57.2258329  46.4391232   1.8635148  56.9262981  47.1438646   1.2891911
  56.4215851  46.0661888   2.2245279  48.1772900  61.7170620   3.6470684
  48.3789301  62.0557213   2.7747834  48.7903404  60.9923363   3.7702405
   7.3322040  54.9661160   2.3439494   6.4560133  54.5900202   2.4280477
   7.1803737  55.9047318   2.2335730   8.2741749  62.1275187  19.8566020
   8.9973223  62.4881697  19.3435502   8.0625778  62.8148079  20.4883409
  77.7538729  34.5327735  58.7296724  77.8573990  34.5195675  57.7781773
  78.6367130  34.3849254  59.0687323   2.4265979  53.9913940   5.4060507
   2.6283848  54.2401552   6.3080668   1.9276161  53.1786299   5.4876578
  67.0747817  -0.0593802  53.8259029  66.6901601   0.0511364  52.9563761
  66.9729460   0.7959703  54.2433214   7.0016354  24.7907639   5.7319129
   6.5886897  25.3883839   6.3552558   7.2536302  25.3487349   4.9961141
  10.2632093  68.7754488  11.2865853   9.9281788  68.1849861  11.9613755
  10.5672848  69.5436239  11.7699850  51.3778782  14.3357658  44.8927450
  51.9932604  13.8177514  44.3738985  51.7704964  15.2079654  44.9294758
  13.5847771  14.4566894  57.0473003  12.7241135  14.0676010  56.8920612
  14.1608572  14.0227032  56.4179945  72.7930164  66.6906834  20.5901217
  73.0954504  66.6597176  19.6824837  72.2505331  65.9082270  20.6886458
  21.1202192  38.1674385  15.3134835  21.2497115  38.9701366  15.8185983
  20.4720426  37.6716018  15.8137250  80.9419537  10.4308212  53.6204863
  80.3180981  10.2829003  52.9097414  81.7998600  10.2947676  53.2183361
  73.7539148   7.3453408  45.0435638  73.4184885   6.6083801  44.5330620
  73.3008194   8.1095058  44.6872091  32.6098609  56.0646057   8.2745963
  32.7430916  55.9713173   9.2178768  31.7631984  55.6494808   8.1100804
  64.0309238  20.3202510  62.2685814  64.4879055  20.9034371  61.6625309
  63.1968498  20.7578492  62.4390364  33.0504894   7.2169363  59.2582178
  33.4776521   7.4019837  58.4218454  33.6966705   7.4685836  59.9180317
  36.9286728  63.7451410  14.1396296  35.9799480  63.7913704  14.0212488
  37.2565293  64.5643902  13.7687230  67.9774809   3.6742488  23.1099415
  68.4486723   3.8735837  23.9189386  67.4750853   2.8853446  23.3135509
  51.8234301  38.2992244  59.4526196  52.0800400  37.7828431  58.6885929
  52.6520491  38.5676980  59.8495388  61.9646883  73.0055380  43.5603857
  61.8610620  73.5838890  42.8047371  61.5235662  72.1955490  43.3043385
  37.9105759  38.9144063  17.2303128  37.5882936  38.0150652  17.1707153
  37.9600215  39.2118120  16.3218319  69.0765095  16.0132670  27.3512721
  68.8807869  16.8699563  26.9717884  68.6107635  16.0096753  28.1875134
  44.3589163  24.5439029  54.9856043  45.2568150  24.8753858  54.9970484
  44.2651463  24.0775919  55.8162594  31.4228821  13.1923854  64.2252827
  31.0178328  13.3767974  63.3778381  32.1087956  13.8543749  64.3120241
   3.5462564  58.2785654  16.5573752   4.2765179  58.8376904  16.8225729
   3.8346940  57.3909664  16.7699838  66.6855383  31.3851690  46.3274193
  67.3830509  31.8461609  46.7934656  66.1000347  31.0752583  47.0183420
  81.3109779  45.2115440   5.2845174  80.5801105  45.4421186   5.8580196
  82.0888042  45.3232861   5.8310837  55.5374241  19.6055174  35.3368688
  54.5852375  19.6246517  35.4327846  55.8302975  20.4472089  35.6861711
   7.2405308  66.5516233  16.8076324   7.6492107  65.8301306  17.2858179
   6.5320796  66.1400700  16.3127077  68.4174490  26.6361308  62.6533365
  69.0080023  27.0856166  62.0488214  67.8401613  26.1235189  62.0874739
  12.6375270  10.4786527  30.7616115  12.5808561   9.9688792  29.9534345
  12.7816200   9.8260218  31.4468431  12.9055035  62.5285530  44.4847345
  12.9274869  62.7791548  43.5611820  12.8206456  61.5752029  44.4722700
  17.7094245  29.3306756  12.2604918  18.4192359  28.8376141  11.8490422
  17.0671713  28.6651850  12.5072014  64.2802858  15.6329465  46.7804527
  65.1520395  15.6617475  46.3861847  63.7028503  16.0019338  46.1121321
  39.0238214  71.9216871  57.8012276  38.2993174  71.7127848  58.3908796
  38.6634684  71.7925453  56.9239044  55.3444958  51.2965918   3.1667557
  56.2813139  51.1128187   3.2362464  55.1880074  51.9891405   3.8087252
  45.3764868  19.3031323  56.8107605  46.0225201  18.6804402  56.4773989
  45.0120163  19.7131145  56.0263443  78.7955570  74.3681812  47.7476931
  79.3624163  74.0886354  48.4665537  79.0702152  75.2659893  47.5613260
   5.1189899   3.5485095  49.9719238   4.7068745   4.4023225  49.8400307
   6.0230827   3.6716953  49.6826601  80.7137680  63.6449242  18.5826015
  79.8325396  63.3537102  18.8168180  81.2552452  62.8599119  18.6650252
  37.5055003  26.2586784  57.6117945  38.2290411  26.3614631  56.9936037
  36.9407463  25.5974507  57.2117138  23.4394217  14.7098148  19.0562880
  22.6531482  14.4862258  18.5582781  24.1479921  14.6747088  18.4136915
  79.2669296  29.6614027  20.5752468  79.4293928  29.3145752  21.4524865
  78.5092735  30.2366161  20.6816387   1.9358832  28.9397788  27.1468496
   2.6375031  29.5033860  26.8208027   2.0481521  28.9431596  28.0974364
  67.3537922  75.4730844  34.3333459  66.7129135  76.1799765  34.2571115
  66.8358994  74.7053432  34.5754170  75.3191042   6.6783941  61.5867376
  75.3717136   5.8586073  62.0780754  75.4724407   7.3600358  62.2410202
   9.5265961  65.5489779  34.0207624   9.4769460  65.6002569  33.0662274
   8.6509109  65.7940722  34.3196583   9.9129093  47.2646904   0.5276350
   8.9729017  47.1989107   0.3594400  10.2437401  47.8224754  -0.1763966
  15.2584648   3.2238618  65.2598238  15.6563342   2.8534564  64.4719601
  14.4358718   3.6070290  64.9552679  69.1947937   2.2111119  55.8882666
  69.4011068   1.6853890  55.1154280  70.0472260   2.4892305  56.2232876
  20.4635334  35.8338332   2.4605528  20.3285503  35.0670767   3.0174172
  20.0632977  36.5555191   2.9455400   8.4784126  70.6568098   3.8933280
   9.2536563  70.4448318   4.4132265   7.8373086  69.9887085   4.1359302
  58.3507156  25.4848862  42.7479124  57.9208088  24.9723959  42.0632458
  58.8162804  24.8362827  43.2759285   0.0183784  26.3796520  56.7703438
  -0.0624485  27.0560861  56.0979319   0.2236870  25.5814219  56.2836123
  31.4511609  59.4708252  26.9254708  32.0030093  59.7750664  27.6459813
  31.9525146  58.7618780  26.5226483  43.7468243   8.0895078  67.0816946
  44.5998955   7.8598350  66.7132616  43.5184717   8.9174587  66.6591024
  60.5522871  66.1551857  48.7426519  60.2172661  65.6678486  47.9899931
  60.4225540  65.5664873  49.4861794  80.2804756  19.4761980  18.0804253
  80.2397537  18.7132275  18.6570108  80.4201984  20.2159643  18.6715734
  53.1313610  41.7911577  60.9832144  52.2012568  41.8588161  60.7674408
  53.3273935  40.8572817  60.9078693  50.2424622  73.5320139  62.1754408
  50.9244442  73.2289886  61.5760231  50.0579357  72.7745962  62.7308702
  40.5662155  60.5760193  33.8469028  40.2760315  59.8739958  34.4292998
  41.2862158  60.1907015  33.3475351  39.3611217  19.1419840   1.0593496
  38.4379148  19.3061805   1.2516113  39.3651128  18.8262415   0.1557335
  25.7770991   4.4221362  63.8759756  25.1753187   3.9589733  63.2932472
  26.3979125   4.8512799  63.2871962  51.8926048   3.5651475  57.1322870
  51.6779518   4.3697935  57.6041985  51.1573315   2.9790378  57.3113918
  28.5614085  23.1918168   9.5768839  27.7964163  23.6514974   9.2308939
  28.2421827  22.3116398   9.7759229  77.3364258  67.2866488  -0.3099020
  76.5551805  67.5334501   0.1850497  78.0673170  67.5487757   0.2498480
  79.2096758  75.3080893  40.9657240  78.9619541  74.9515486  41.8188000
  78.4051657  75.2721214  40.4483223  18.9221931   1.4900713  12.2682512
  19.4818473   1.7835854  11.5493155  18.9614582   2.2010282  12.9079628
  48.0034256  67.3995113  39.1442919  48.6215305  66.8556261  39.6325278
  48.3607960  68.2851458  39.2088652   4.7635990  73.0601645  50.8155441
   5.2810812  72.4555922  50.2836275   5.3960145  73.4491825  51.4196539
  80.1646519  71.9920969  16.4163983  79.6822262  72.5722361  17.0054173
  80.9989166  71.8399286  16.8603349  70.1015615  12.8866887  50.8842516
  69.1497993  12.9850852  50.9106255  70.4342985  13.7836432  50.8527708
   0.7087785  44.9649525   7.9435182   0.1837258  44.3972349   8.5076565
   1.3708884  44.3840694   7.5687969  57.1200848   0.9317392   7.0535564
  57.3423433   1.4572373   7.8221166  57.5587654   0.0938998   7.2012639
   7.8525484  50.3585529  53.8703537   7.4921644  51.0981131  54.3596506
   7.8458679  50.6487656  52.9582310  57.3970318  65.6668758   5.3848648
  56.4417076  65.6868839   5.3283834  57.5854158  65.8179474   6.3111055
  15.6722593  44.3225479  13.6589622  16.2160647  45.1040411  13.5601103
  15.9614527  43.7391996  12.9573178  39.1345787  75.8062172  27.9300785
  39.7614360  75.3240299  27.3908401  39.4173932  76.7185831  27.8681684
  74.8526192  30.7352304  54.5623684  74.0628433  31.2413883  54.3718672
  74.5291710  29.8642492  54.7925997  14.4340229  22.1116018  43.2045555
  13.5940552  22.0969939  43.6633301  14.8619223  22.9100800  43.5136938
  41.8750954   7.4130410   2.8091708  42.6258421   7.8980577   3.1517643
  41.2498760   8.0903625   2.5511658  37.5454807  68.6705542  23.5612702
  37.8195000  67.7553797  23.6212683  37.2202635  68.7649918  22.6659775
   7.4491769  50.2410936  12.3863864   7.3195308  49.3455744  12.6985884
   7.1158320  50.7922173  13.0944645  11.2698138  65.7090902  21.6985917
  11.5901637  65.4069996  20.8486795  11.7408824  66.5275478  21.8549848
  25.6261563  22.5985551  38.7859225  26.5440702  22.7641249  38.5708547
  25.6586814  22.0647001  39.5797563  61.1548138  75.4262257  47.0025349
  61.4186192  76.0980177  46.3737869  60.2837515  75.1554680  46.7124033
   7.7335221  32.8360200   5.9314805   7.0927626  33.1111979   6.5871757
   8.3959460  32.3575521   6.4299709  16.7141879  70.1693964  50.5274248
  16.7336738  70.6862402  49.7219896  15.8424842  70.3251171  50.8909035
  36.3546395  75.2891874  49.1044188  35.8491778  74.4765472  49.0857553
  36.4041305  75.5192184  50.0322485  54.6772194  22.8554130  54.7534180
  54.2925406  23.7309813  54.7130156  55.3035593  22.8353620  54.0298653
  37.7498102  26.2720370  39.4861221  37.5977850  26.3818550  38.5474753
  38.5998297  25.8354354  39.5416164   6.4845991  33.9329505  41.2019444
   5.5340725  34.0457535  41.1993313   6.7096812  33.8185787  42.1252489
  20.2773237  54.9055290   5.2000064  19.5743465  55.4479551   4.8424774
  20.8814168  55.5302572   5.6012809   3.7565178  22.2764564   0.4793525
   4.1267866  21.4035058   0.6100750   3.8398826  22.7022147   1.3325894
  53.1858873  20.6593132  62.2978210  53.2212019  21.5187645  61.8779039
  53.7424755  20.1032948  61.7525816  57.3748398  21.0421515  62.8410816
  57.8432703  21.8754268  62.8906918  57.7355003  20.5215454  63.5588074
   5.3639448  38.1496263  32.4763703   5.5530739  37.5611663  33.2072425
   5.8905178  37.8098321  31.7528415  10.7291913  51.6237879  42.4420118
  11.3178074  50.8784008  42.3229980  10.1506960  51.3602686  43.1576490
  68.3793831  28.2713127  46.8701887  68.5586357  29.2046738  46.7564535
  67.7878189  28.2308602  47.6216173   1.8384549  46.3079548  20.5268478
   1.6070241  45.4059267  20.3054452   1.0402182  46.8084145  20.3577709
  40.8269024  56.9647026  38.4688759  41.5476799  56.7233944  39.0506649
  41.0050154  57.8747654  38.2316160  55.0591230  33.8206553  54.8706675
  54.8509932  33.3155608  55.6566668  54.4924545  33.4528303  54.1925621
  59.4141245  12.5338852   4.9243000  58.7607431  12.1095932   5.4804516
  60.2150965  12.5276995   5.4483557  60.7676315  37.1464801  54.2010260
  61.0105085  37.9660654  53.7703037  60.2835751  36.6596508  53.5340071
  52.7021885  45.0338173   0.7111286  52.5063324  44.0996075   0.7827047
  52.1236229  45.3472567   0.0159688  58.5697031   0.4360580  14.0937388
  58.8826847   1.3383538  14.0294242  59.1465092   0.0279200  14.7394562
  53.4570217  48.8804150   2.5234041  53.9220428  49.7085905   2.6421958
  53.3085871  48.5593557   3.4128529   8.3533722  18.5874653  52.6179600
   7.5600320  19.0414405  52.3337984   8.6180872  18.0693078  51.8579149
  13.8675570  66.4736700   0.4515974  13.6957645  65.8950567  -0.2913225
  14.6400332  66.9752312   0.1909318   9.5897931  19.8878968  46.7687988
   9.2614287  19.7830081  45.8758211   8.8016683  19.9302936  47.3103666
   8.8969332  27.5487757  42.4260998   9.8062611  27.8125000  42.5668192
   8.3950824  28.3580732  42.5231171  39.4950700  38.6227512   7.4587399
  39.4681382  37.6816821   7.6316512  39.3220830  39.0274954   8.3087331
  55.2745771  38.7397099  45.2238321  56.1270905  38.4165525  45.5154324
  54.6536350  38.0702806  45.5111122  53.9735031  64.7229385  48.6487246
  54.2329407  64.4530630  49.5296860  54.3186665  64.0373611  48.0768156
  72.3316908  17.9434931  57.5661850  72.4335098  17.7993369  56.6253948
  72.5658083  17.1048141  57.9637194   1.7713004  13.8845861  57.2314453
   2.3815614  14.4609666  56.7714453   2.1155220  13.8340485  58.1231785
  52.5664186  30.3745103  16.8468165  53.1784630  30.4334402  16.1132216
  51.8003035  30.8715892  16.5600884  17.7608216  71.6422033  33.3593774
  18.0365205  71.0946417  34.0944958  16.8074393  71.5584564  33.3426857
  16.8427432  14.5942843  65.1628780  16.2363863  13.8644326  65.0368690
  16.2773907  15.3544700  65.2997160  22.6454234   7.3742229  53.1720114
  22.9674006   7.5260973  54.0605450  22.7569366   8.2157648  52.7297401
  15.6959534  41.1405706  60.1260567  15.3252006  41.7528296  59.4905090
  15.1230407  41.2117386  60.8895588  34.1647220  65.2699232  64.8475981
  34.2803240  64.8405266  65.6952333  35.0048876  65.1540375  64.4038391
   6.6703540  64.0344191  63.3044910   6.5637809  63.0941105  63.4483624
   7.4609637  64.2633867  63.7931013  59.0799761  61.2688828  26.3974118
  59.9246168  61.3306856  26.8434930  59.2962313  61.3228035  25.4665208
  63.0816269  17.0490754  54.0423155  62.9231596  16.4535213  54.7747326
  64.0178108  16.9633996  53.8621855  25.7745910  51.4806461  15.0023198
  26.0905385  50.7199478  14.5147276  25.1513457  51.9023514  14.4107485
  68.0420685   0.3601013  27.7094841  68.5396719  -0.3774460  28.0625391
  68.4139347   1.1288325  28.1419182  81.1548710  67.0744562  23.6039829
  81.7314339  66.3377666  23.8067126  81.6336346  67.8446531  23.9102817
  26.6131210  77.2713423  63.1306696  27.1682644  77.9562330  63.5034609
  27.2276187  76.6573381  62.7286434   2.7713019  20.5389452  64.4522190
   2.9827175  21.3410974  64.9298048   1.9088271  20.2849317  64.7806168
  17.7371073  29.3303919  56.0584927  16.9886124  29.9131203  55.9303761
  18.3747864  29.8610306  56.5360069  79.6595669  44.6130514  55.3023577
  79.8564291  45.5296421  55.1091290  78.8562870  44.4325256  54.8141146
  19.1736865  42.8526306  47.7536297  19.4315279  43.3847141  47.0008802
  19.4494414  41.9649363  47.5251818  81.5029144  21.2447715  45.1699162
  82.4476814  21.1316872  45.2741051  81.3137436  22.0820141  45.5935621
  74.9840546   5.8284497   2.5134599  74.1147375   5.7305902   2.1249458
  74.9220419   6.6241544   3.0418915  59.4342089   3.2205197  13.9210510
  58.9567518   3.6218217  14.6471512  59.5289898   3.9239615  13.2788527
  39.4625425  64.9942970   1.1981276  39.6786547  65.4551506   2.0087707
  40.2855873  64.9693775   0.7100637  20.3147101  35.9552741  62.4389935
  20.7507038  36.0012269  61.5880966  20.8546948  36.4971137  63.0143738
  69.9784470  45.3641081   4.8019335  70.3905678  44.9267673   4.0568691
  70.7053709  45.7727242   5.2718765   2.3252921  10.9618664  48.5018206
   3.2432073  10.9867716  48.7720871   2.3387584  11.2301457  47.5830841
   6.7302632  41.4083338  31.9053912   6.2570983  41.8387842  32.6174688
   6.4320397  40.4992485  31.9348073  13.7603617  16.2368011   8.5895377
  13.1135762  16.7160547   8.0716413  14.5583200  16.7609775   8.5207331
  65.4554796  73.4157038  14.9014258  65.7866907  74.2335558  14.5304155
  65.3092146  73.6141872  15.8263278  65.6942940  26.2113786  53.0905294
  66.1649179  26.8903732  52.6070929  64.7758627  26.3425803  52.8549480
  32.5903630  37.1339321  57.3076057  32.8978038  37.7422500  56.6355467
  32.1870732  36.4181876  56.8163824  25.9617352  28.3437395  62.5399351
  26.5138578  29.0513158  62.8726912  26.5199399  27.8764367  61.9184351
  20.1739597  44.6066570  19.5671999  20.5608273  45.2422333  18.9650285
  20.4736972  43.7570763  19.2437804  15.1306319  71.3653040   5.2063072
  14.9528027  70.4600096   4.9512520  15.9916592  71.5544844   4.8333776
  53.9189196  54.6252155   2.7242714  54.0298653  54.5951462   3.6745441
  53.0872202  55.0809383   2.5945365  77.8194284  41.5460920  44.6869516
  76.9269180  41.4955139  45.0291491  78.1493711  42.3876190  45.0019217
  12.0579362  74.6113062  33.4997344  11.9236028  74.5576143  32.5535297
  12.4206448  73.7583923  33.7389326  34.9464750  60.0372076  15.2269208
  34.0747428  60.0768185  15.6203020  35.2804375  59.1740274  15.4710984
  17.6633406  11.7747927  46.0129261  17.2434747  11.4879060  46.8238783
  18.5399628  11.3920569  46.0486889   6.9097048  21.8496919  38.9960718
   7.3197156  22.6277256  39.3739438   6.1414218  21.6932225  39.5451522
  27.7281666  57.4508667  38.5685897  27.5789738  58.3287239  38.2173944
  27.1923256  56.8788338  38.0191493  55.7187939  41.9174623  62.1549892
  56.0706854  42.5011921  61.4829254  54.8373032  41.7038822  61.8490648
   5.2443111  40.5367231  67.3293734   5.3377455  40.2362013  66.4253855
   6.1213899  40.8301401  67.5760937  72.3100662  27.9904628  47.9795837
  72.1388626  28.9058352  47.7581978  72.0376015  27.9101181  48.8936615
  64.2507219  16.7951739  49.3668747  63.8014603  16.2391305  50.0034332
  64.2761803  16.2707043  48.5665512  10.4507256  77.5583744   1.2063734
  11.2198031  77.4430752   1.7644580   9.7151279  77.2794437   1.7516497
  75.8816004  44.2663050  64.1944122  76.3151789  44.3034458  65.0469732
  75.6317854  43.3479118  64.0925550  69.6238565  58.2332659  44.3968868
  70.3732634  58.8284779  44.4153976  69.1167164  58.5103416  43.6338234
  50.7226562  13.0049145  15.6310833  50.9311247  12.1756709  16.0613489
  51.0259676  12.8903377  14.7304690  62.0493507  37.3667383  59.5805836
  62.5799513  36.5952969  59.7795153  61.4568233  37.0774508  58.8867140
  16.1117482  49.8451185  16.0325348  16.2174141  49.5539713  15.1268315
  16.1495340  50.8002901  15.9830213  12.1997488  49.2850399  51.4278221
  11.6643894  48.4943247  51.4940786  11.6892350  49.8740721  50.8722639
  56.1838961  36.0410476  58.2140064  55.9534597  35.4349732  58.9181376
  56.2807417  36.8880844  58.6491871  77.3681641   2.4791713   9.4865257
  76.6463566   2.6372993  10.0949883  77.8156614   3.3228105   9.4213516
  77.9882669  60.6611538  10.2130246  78.3245325  61.4860725   9.8627907
  78.3059597  60.6369543  11.1156416  21.5164876  23.1885219  57.5855255
  21.5394211  23.7915921  56.8425512  22.4365735  22.9964471  57.7665901
  40.8654022  76.4801979  13.3802533  40.0732660  76.0108805  13.6419737
  40.6424046  76.8749571  12.5372410  16.6667569  13.2093489  25.4472446
  17.1466148  12.3837662  25.5134368  16.2029314  13.2843149  26.2811995
  47.4448490  21.3501930  21.2408257  47.9065943  20.5259061  21.0872865
  46.7548847  21.3653779  20.5775380  28.1440330  57.5137806   3.9743710
  28.7979531  57.7224684   3.3072352  28.5738015  56.8705130   4.5380518
  28.0303955   8.7901556  54.2339659  28.3742118   7.9411113  53.9562130
  27.1798515   8.5882056  54.6238661  79.3732786  15.4705787  31.4425826
  79.7323322  15.6571007  30.5750990  78.6455727  16.0850739  31.5377927
  67.9305363  13.8624895  55.0881147  67.0131540  14.1128922  55.1974058
  67.9024267  13.0908024  54.5224857  76.8230391  10.0575340  56.6955662
  77.7801609  10.0626373  56.7064285  76.5757370   9.6995115  57.5481462
  11.1647642  26.9125676  46.0449171  11.4911294  27.2219443  45.1999283
  11.1791158  25.9582281  45.9723663  17.4015999  55.3647470  15.5508792
  16.5384758  55.1792860  15.1809418  18.0001426  55.2996588  14.8067403
  69.6718788  74.1697216  60.3457355  69.2773390  75.0262260  60.1814842
  70.3237724  74.3330479  61.0273409  14.5096302  73.5142183  18.6810958
  15.1624310  73.5431957  17.9816365  14.7951245  74.1834831  19.3030381
   9.3501282  17.4699819  60.2393055   8.8758206  16.7629957  60.6768417
   9.4541371  18.1416202  60.9133339   9.7342598  61.1502647   9.4332868
   8.9199626  61.2183332   8.9347702   9.7722292  61.9603539   9.9417633
  79.0822887  24.1277981  62.3203850  78.1872892  23.8059306  62.4281454
  79.6127701  23.3358240  62.2332001  24.6162581  42.6976109  24.0219188
  23.9856672  43.3120680  24.3974590  24.1278911  42.2426271  23.3358312
  30.8326268   6.7723596   8.9201856  31.4159012   6.5448976   9.6442598
  29.9836636   6.4100558   9.1736227  60.3308392  61.9085979  44.6489286
  60.2636194  60.9848022  44.8904037  59.5400524  62.0806980  44.1377783
  13.0950892  77.7020311  24.8077321  13.7442327  77.6011419  25.5039096
  12.2569656  77.5227928  25.2339411   7.0152485  54.0400219  29.6557760
   6.6556650  54.9189138  29.7761083   6.9075435  53.6183786  30.5083299
   5.3635639  45.5953932  49.2214727   5.7097936  45.3253889  50.0720310
   5.4980636  44.8350239  48.6558056  17.3269796  39.3651676  61.3101721
  16.6849458  39.9426246  60.8971739  17.6317310  39.8538160  62.0747519
  33.5548306  21.5730524   3.3922517  33.4663177  22.5223374   3.3070901
  34.2599154  21.4543796   4.0286529   7.9164267  50.5187035  47.4353504
   6.9948947  50.7200813  47.5980091   8.2721364  51.3193941  47.0498657
   1.7393085  15.1467848  64.7081614   1.5239710  15.1283038  63.7756824
   1.1061738  14.5532441  65.1119995  24.0187812  48.8766813   0.1445366
  23.1905341  48.5468006   0.4929900  24.3222284  49.5034742   0.8012564
  10.3949964  33.6908960  13.5679471  11.2885869  33.4484386  13.3251655
  10.4052103  34.6476793  13.5943353  33.4620070  76.5470171  63.5685873
  33.3733797  75.6303358  63.3076906  32.5614452  76.8609715  63.6501455
  47.2602463  44.7158051  40.4944563  47.9066086  44.8987818  41.1763430
  46.4238501  44.9739647  40.8817863  23.8024712  50.2188015  40.8111000
  23.9480281  49.2761326  40.8912134  23.9702129  50.4094696  39.8882008
   3.4810901  66.6593266   8.5293728   4.3095246  66.6633034   8.0498815
   3.6171404  67.2771788   9.2476916  28.3454108  70.1839876  33.2408524
  28.1152534  69.4272184  33.7798882  27.5096440  70.6166315  33.0660844
   3.1385922  55.4013920  65.2688026   3.5603964  55.1013899  66.0739803
   2.4886735  54.7264671  65.0730658  28.9750195  10.0941527  12.1208906
  29.2224503   9.3059003  11.6374981  29.7596955  10.3269482  12.6172006
  74.0311337  17.3052645  39.6696782  73.5241222  17.0506835  40.4406309
  74.0233231  16.5283370  39.1106129  10.4909730  70.4803801   5.6812167
  11.2176192  69.8608828   5.6145376  10.6777620  70.9842968   6.4733076
  36.4326631  77.5358131  21.6937137  36.6566097  78.4411203  21.9093466
  37.2560035  77.0566420  21.7871594  48.4123850  13.5987902  29.7268796
  49.2557430  13.8714075  30.0883532  48.5372496  12.6784217  29.4954419
  74.7002888  41.6389561  36.5766621  74.3852949  41.2839937  37.4079347
  75.0742722  42.4897385  36.8058777  55.1636219  18.1844258  42.4094629
  54.3947840  17.7852058  42.0023441  55.2620888  17.7209258  43.2411480
  64.3188143  30.0474524  38.9461064  64.9259281  30.0749755  39.6856260
  64.7127438  30.6238294  38.2912469  71.0709047  42.7142000  47.8868675
  70.9752941  43.1579447  48.7295914  70.2935266  42.9714775  47.3911572
  23.9452815  32.4176383  63.4486866  23.8022256  31.4715075  63.4241247
  23.3684969  32.7648258  62.7682352  31.2038374  67.6072216   0.7685883
  31.0432410  66.7325974   1.1228053  31.7784238  67.4596167   0.0173933
  60.4119349  46.1868811  56.3532877  60.0418043  46.3658094  55.4888678
  59.6573114  45.9507704  56.8927526  64.6796560   8.5148275  59.4677782
  65.3658390   8.9107752  60.0050020  64.2354441   7.9055643  60.0574446
  54.3553734  28.8859081  12.0464468  55.2292681  28.4953451  12.0469475
  54.2323446  29.1964722  11.1494255  60.4981804   6.2134117  64.3491077
  60.9341192   5.4046655  64.0805578  60.3408575   6.1008024  65.2865553
   8.9963377   9.4794661   9.2212301   9.4917989   8.6813360   9.0375519
   8.0831903   9.2341536   9.0721792  57.4739361  64.1895771  45.2094364
  57.3930359  65.0505972  44.7991562  57.6284647  63.5899973  44.4794655
  56.3174009  39.1693878  56.2012339  55.7294464  38.4278727  56.0573673
  55.7370901  39.9289584  56.2514400  81.1719131  30.6874084  35.0584054
  81.1360264  30.6926394  34.1018915  81.7330074  29.9421811  35.2729654
  21.9648814   6.5460771  24.6672916  22.6409364   6.1467171  25.2147341
  21.2004113   6.6106665  25.2396941  29.5372200   2.6459464  27.8013444
  30.2456355   2.1854347  28.2511282  28.8758159   1.9722357  27.6435733
   8.0273366  47.6099253  48.4743547   7.4099970  47.4451733  49.1870832
   7.8408992  48.5073996  48.1986570  18.2699025  50.6813908   9.5102793
  19.1961265  50.7540512   9.7406298  18.2584059  50.1122332   8.7407625
   0.9121665  39.1135406  53.2936192   0.1974650  38.8190317  52.7290869
   1.6589643  38.5728645  53.0363417  31.1080956  12.9262352   7.4365014
  31.0287189  13.2222271   6.5296829  30.2818990  13.1835914   7.8456432
  71.5334606  61.4661217   3.8882551  72.3652697  61.9373703   3.9356887
  71.7652988  60.5532265   4.0588769  37.4166560  34.6521568   2.8098387
  36.6084957  35.0690150   2.5109404  37.8914976  35.3483033   3.2638636
  74.2458963  45.3419828  57.4184418  73.6796188  45.1172066  56.6801786
  73.6992884  45.2004004  58.1913614  27.1052432  71.2847471   6.9946438
  26.5532613  70.8535385   6.3422596  26.5547156  71.3393450   7.7757788
   4.8189408  17.7977002  57.4537039   5.1397061  17.5761175  58.3279133
   5.1095587  18.6988318  57.3132277   5.1093078  22.1454358  15.2526855
   5.5724132  22.7387476  15.8440804   4.7916853  21.4422798  15.8191800
  11.0678601  54.7739506  10.0149083  11.1786485  55.3147554   9.2329335
  11.7031455  54.0659189   9.9084276  14.6869540  16.0596919  66.5886736
  13.8990605  16.2222242  66.0699844  14.3884528  15.5069554  67.3109007
   2.1644855  38.4363985  42.2588873   1.3375981  37.9745913  42.3975372
   2.1477002  39.1532612  42.8929663  46.8344259  72.6965380  66.1556053
  47.3455381  72.3984289  66.9080210  47.3230600  73.4463120  65.8160400
  27.6225090  67.9617023  34.5622349  26.7137885  67.6933670  34.6980739
  28.1275344  67.4066210  35.1564240  46.1664772  59.4523668  35.5017424
  46.3072300  60.3340578  35.1567197  45.9455299  59.5881748  36.4231372
  81.4784908   4.4209310  20.6656027  80.7347107   4.9323729  20.9841037
  81.4690399   3.6264729  21.1994362   7.7682185  47.9747915  31.6826439
   8.3827877  48.4027815  31.0865188   8.1756985  47.1319628  31.8822074
  19.3554759  47.3414755  23.2269096  20.0812316  47.9641771  23.2687902
  19.7678924  46.5078545  23.0005813  62.3692036   9.8851109  33.7237430
  61.9453382   9.2413294  33.1561899  61.8054342   9.9316871  34.4958997
  66.7292929   1.1758815  23.7529087  66.7409754   0.4207155  23.1648445
  65.8045721   1.4143476  23.8181663  12.2644866  73.2873344  15.9621763
  12.7723181  72.5608969  15.6007600  12.8438497  74.0455341  15.8866274
  22.3399162  23.0208516  66.2026167  22.5197577  23.2972479  65.3040123
  23.1113863  23.2973623  66.6971970  61.2513733  19.8106623  22.2660017
  61.4576292  19.7266340  23.1969333  62.0854807  19.6598327  21.8213153
  79.1692638  19.9229479  35.5862737  80.0230408  19.9164641  36.0190034
  78.8667965  20.8275270  35.6667876  56.2544775  11.6518319  52.5852013
  57.2076464  11.7202032  52.5301695  55.9494066  12.5590682  52.5944233
  68.5593224  76.2436438  44.4006634  68.6399603  75.3163433  44.1774130
  68.9667034  76.7030907  43.6663723  81.6074657  21.8251276  62.6718569
  82.4792385  21.8654108  63.0650759  81.3013268  20.9376049  62.8584480
  74.3675327   8.7918854  22.7563238  74.0198994   8.9371920  23.6362481
  73.6438942   9.0190077  22.1723795  12.0543337  13.5629332  11.2830031
  12.1281505  13.3755016  10.3472400  11.6317344  12.7865160  11.6501796
   4.7856146  67.3583460  58.8763046   4.5090467  67.6146412  57.9965019
   4.6616593  68.1463337  59.4054031  46.8846178   9.6083552  28.0876899
  47.8093958   9.8418844  28.0071664  46.8361473   8.7078917  27.7666783
  79.4792795  23.2916331  57.7622557  78.5533047  23.1970167  57.9855251
  79.9421263  22.8214002  58.4557152  39.4950366  43.8676453   5.9692401
  40.0209045  43.1314135   5.6567317  38.6092758  43.6775684   5.6601608
  25.5786419  76.7932796  19.3575573  24.7951770  76.5008116  18.8918543
  26.0888219  77.2620964  18.6971354  31.6377378  24.0908265  59.1023064
  32.3529744  23.5060334  59.3526840  31.3202333  24.4493747  59.9310780
  77.4331570  10.1594639   4.1029093  76.5111113  10.4145253   4.1345909
  77.6238346  10.0658512   3.1695762  33.2592869  77.4917603  15.3578842
  33.2433057  76.5355206  15.3181374  34.1263199  77.7026224  15.7043242
  16.9440734  23.1267214  23.9287949  17.8891039  23.0082750  24.0242887
  16.7686605  22.9222345  23.0102921  44.6285915  43.4256792  16.9926083
  43.8512945  42.8671455  16.9834936  45.3343534  42.8491831  17.2854900
  18.4015346  26.8738842   8.4012878  17.8921854  26.0648108   8.4481525
  18.4941816  27.0446301   7.4640077  34.7819352  42.6478529  19.6679854
  34.5973325  42.6774502  18.7292218  35.3468180  41.8828344  19.7770023
  16.6539085  31.9471431  12.5656486  17.1727765  31.1802483  12.3229933
  16.1393654  31.6593528  13.3197415  72.4117184  44.5776796  40.9275341
  71.6935301  43.9640522  41.0821104  71.9813919  45.4235744  40.8029556
  73.5365915   4.7356331  51.9647741  73.7252760   5.6479013  52.1847677
  72.8164864   4.7848722  51.3360786  17.7615619  46.8312311  37.3905849
  16.8453741  46.5637207  37.4631810  17.8279233  47.2248840  36.5206051
  67.1557188  29.4511652  43.6751604  68.0145407  29.6601129  43.3077335
  67.3496628  29.0238380  44.5094299  43.8339950  51.1362671   0.1100360
  43.3874882  51.9760655   0.2177440  43.1357885  50.4842864   0.1705371
  63.4318447  33.3171034  51.7657948  62.7739716  33.5405254  51.1073732
  63.2529449  33.9114976  52.4944401  65.0606298  49.6401310  56.8881559
  65.2950668  48.7238359  57.0353699  64.2879105  49.6020794  56.3245201
  24.6983695  21.0876775  30.9488869  24.3494320  20.2859521  30.5593896
  23.9890528  21.4130759  31.5031600  17.2279775  46.8948889  34.6029735
  16.7911410  47.2292471  33.8196421  16.8186343  46.0441494  34.7607923
   6.9135523  23.5976744  56.1136150   7.6050252  23.0301070  56.4541483
   6.9111580  23.4329557  55.1706982  72.1556473  35.3634810   6.9509113
  72.0341730  36.0807347   7.5730228  72.8348684  35.6768775   6.3536894
   3.6548707  44.5819569  63.8679934   4.1340363  44.0984488  63.1950521
   3.2472783  45.3084373  63.3964729  11.2164426  54.5160627  15.6083620
  10.3983235  54.1233063  15.9127617  11.0685861  54.6868706  14.6782041
  23.9016652  57.8800583   0.4045131  24.4890332  57.3079348   0.8983849
  24.0492129  58.7508392   0.7735666  74.3141317  51.5350533  17.2913432
  75.0323820  50.9182787  17.1501398  74.4305563  51.8360329  18.1925011
  70.5317926  18.8534772  45.8282280  71.0355282  19.0749311  46.6114521
  70.6645250  19.5968258  45.2399683  69.3221235  46.2912464  19.5701611
  69.9049807  45.7015276  20.0484347  68.5248089  46.3208532  20.0989747
  74.9837303  26.5852475  36.0528231  74.1278219  26.8899727  35.7515025
  75.6112528  27.0396113  35.4906821  33.9806819  10.8138311  54.3548965
  34.5776391  10.2865219  53.8240290  34.4537020  10.9592223  55.1742506
  55.0102997  15.8605206  49.9108362  55.6763744  15.1731169  49.9037647
  54.2740440  15.4855967  49.4275188  63.0025625  10.3856909  26.9168687
  63.5761547  10.5675602  27.6612830  63.0277300   9.4335228  26.8221283
  46.3440084  65.6733370  67.4079370  46.2432575  64.7248268  67.3278427
  47.2188854  65.8512592  67.0627356  25.8851433  40.5645847  30.5350065
  25.3076792  40.2264547  31.2194276  25.6991625  41.5031195  30.5067921
  57.5372601  70.1634407  35.2125573  57.6660490  69.3425703  35.6877518
  58.0736923  70.8002377  35.6847453  25.4086566  23.3367538   1.7058651
  24.8333788  23.2018614   0.9528117  26.2695384  23.0462098   1.4046995
  74.5577145  71.2917757   1.8572871  75.3878021  70.9000301   1.5857793
  74.7473049  71.6899347   2.7068502  62.8669977  68.3836174  50.2133894
  63.5215282  68.5426617  50.8934784  62.9934072  67.4668074  49.9690294
   9.1029686  23.4069729  25.8826017   9.3679816  23.0395293  26.7258000
   9.2966622  22.7162743  25.2488422  68.1479311   1.3220201  15.6195152
  67.9237366   1.1246852  14.7101057  68.7055635   2.0981568  15.5657256
  55.3755140  58.8641644  35.2972460  55.4432821  59.8120451  35.4119706
  54.8917627  58.7559891  34.4783974  70.4887772  58.4682035  13.3718860
  71.1825275  58.6873913  12.7498770  70.5721855  59.1236448  14.0644670
  53.7659836  61.9649315   9.6836102  54.6238995  62.1061993  10.0839305
  53.2272673  61.6099072  10.3907001  60.2939320  49.3547153  48.3738995
  59.6917343  49.8943996  47.8617096  61.0184574  49.1709042  47.7759838
  74.6637583  76.5991879   1.9788845  75.2033710  75.8983183   2.3447174
  74.3424273  76.2458897   1.1493303  15.9367967  11.7427874   7.8125745
  16.5923309  12.0773435   8.4246039  15.5572605  12.5268912   7.4158806
  19.8740828   1.5064979   1.8214621  19.2017329   1.6299947   1.1514431
  19.8428082   0.5711970   2.0226234  10.6314683   9.6763766  50.7035208
  10.6639838  10.0741088  49.8334742  10.7803416   8.7439781  50.5463505
  65.2470684  18.0596602   6.6139883  65.1651621  17.3708439   7.2735751
  65.0728416  17.6175547   5.7830733  26.5138221  13.6344779  27.5506258
  27.0365810  13.1450129  26.9155049  25.6683707  13.7593162  27.1195102
  80.3916264  67.8174591  16.8789220  79.5362091  68.2379723  16.9664752
  80.9652805  68.5082483  16.5473056  12.3094285  16.4228117  10.9316516
  11.8885016  15.5632472  10.9458256  12.8131485  16.4294374  10.1177394
  52.0449734  31.2372875  56.3169765  51.5953350  32.0477986  56.0779572
  52.9415369  31.5095091  56.5126657  67.2569275  53.7920141  16.5571749
  66.6041851  54.4914627  16.5266442  66.7445326  52.9907751  16.6653335
   8.3477771  14.1600144  22.3870873   8.7607038  14.6590674  23.0918360
   7.4111128  14.3266165  22.4926114  10.9338522  14.0338600  16.6865885
  10.1301777  14.3561327  16.2785721  11.6364348  14.3703103  16.1303401
  46.1805010  34.7701406  56.6355896  45.3712225  35.2804136  56.6052103
  46.7650223  35.2812076  57.1953964   9.7824365  41.3526392  18.9216864
  10.3157723  42.1050406  18.6654079  10.3095186  40.5915117  18.6785841
  23.0513787  23.2077551  32.1059084  22.8027225  23.7595177  32.8474998
  22.4540329  23.4663248  31.4040899  67.4456787  76.5052462  31.4917660
  68.2945013  76.8558741  31.2219620  67.5634861  75.5554295  31.4777732
  54.1786194   0.3649662  54.6851683  54.2429161  -0.3437791  55.3253078
  53.3060026   0.7335408  54.8227501  53.3908033  69.0068531   8.1151414
  54.1593266  68.4511709   7.9854327  53.0863810  69.2051172   7.2295630
  20.7004356  28.3859468  18.1648207  19.9439812  28.4675145  18.7456441
  21.0794592  27.5345731  18.3833039  53.6828470  77.4037838  34.6060371
  53.2452202  76.6721773  34.1707587  53.2146168  77.5041199  35.4348469
  22.7867055  69.9889469   7.4976814  22.2635317  69.2158222   7.2860312
  23.4949923  69.6554184   8.0484229  24.5737481  28.0209327  27.9963565
  23.6766243  28.3290482  28.1246591  24.5066285  27.0667410  28.0316257
  13.4158850  68.1312895  53.1669092  14.2197669  67.7757072  52.7880001
  12.8871882  67.3605728  53.3735609  70.5691814   9.0346944  58.3342361
  71.0846472   8.3053792  57.9898167  70.2163649   8.7086880  59.1621685
  75.8553934  15.4469180  22.8133202  76.0324430  14.5106137  22.7226615
  75.8862591  15.6062722  23.7566566  71.7644646  13.1333878   0.8426009
  71.5587391  12.3668435   0.3075181  72.7162339  13.2173016   0.7849227
  44.1172695  76.7926645  10.1293766  44.4554615  75.8986616  10.1805007
  43.4242773  76.7492819   9.4705081   8.9571935   3.6373663  27.7772808
   8.2573193   4.2634887  27.5918651   8.7676919   2.8910106  27.2087097
   8.2335836  28.6912084  28.7128401   8.0131000  29.5590568  29.0511560
   7.3892540  28.2998586  28.4888244  19.3909347  42.4621010  66.0581017
  18.9689958  41.6038704  66.0176182  19.8791564  42.4503708  66.8813467
  78.7332439  34.5462108  16.1436760  78.9976358  35.2735114  16.7070234
  78.7705183  34.9043870  15.2567995  76.8977261  33.5107207  50.1787853
  77.6819849  33.0733585  50.5102634  77.1403980  34.4355273  50.1332188
  49.5929527  70.3122997  16.4361942  49.1990423  70.8707952  15.7660127
  48.8877535  69.7214127  16.7003572  28.4587932  45.1184845  29.4678617
  27.9799318  44.4674778  29.9808097  28.7786913  44.6351290  28.7061095
  59.0148973   3.4320885  31.7389297  58.3516550   2.8923431  31.3087940
  58.8591576   3.3026630  32.6744652  54.3349552  13.8691771  37.5997925
  54.5717239  14.3828416  36.8275738  54.6149445  12.9782343  37.3898864
  67.5725746  59.1602135   9.9503332  66.8278646  58.9028072   9.4068438
  67.7372551  60.0730848   9.7141623  75.6154823  40.4864740   8.9488405
  76.3996887  39.9562359   8.8070840  74.9629116  40.1118898   8.3571732
  57.2724676  28.5048914  45.1656151  57.7271366  28.8729525  45.9232664
  57.9682207  28.3228469  44.5339346  12.6366699  18.0796766  60.3401279
  12.0824778  18.8559735  60.4205418  12.2118855  17.5510800  59.6645689
  78.3610630  59.1726255   5.5246043  77.7983236  58.4363699   5.2848351
  78.6001205  59.0044594   6.4360887  50.3561258  46.5764141   7.8842759
  51.2743616  46.5019512   7.6244068  49.9377060  45.8010340   7.5101924
  55.7361507  29.5723772  62.8413773  55.0954199  30.2451754  63.0716753
  55.3561878  29.1294909  62.0826197  58.6964178  76.7999363  22.9241180
  57.9182053  76.6420269  22.3896289  58.5318613  76.3184786  23.7348914
  26.5553927  30.9104896  50.8210182  26.1079216  30.0665712  50.8826637
  25.9386182  31.4751577  50.3552151  46.0010099  43.2909298  66.2870693
  45.5964851  42.4780226  65.9841299  45.4917336  43.5388279  67.0587015
  45.1651192  33.8637352   7.2535223  45.7962942  34.2526317   7.8590071
  44.9524260  34.5697355   6.6431469  64.2753506  77.2300005  27.4881911
  64.1662455  77.9523849  26.8697357  63.7701035  76.5111685  27.1083999
  35.8762264  31.2579203  63.0393457  36.0358238  32.0171523  62.4786949
  36.3555408  30.5443096  62.6183367  30.5672026   7.6210171  65.7357311
  31.0430670   6.8774760  66.1057758  30.4994678   8.2454705  66.4580202
  50.1564837  26.8684673  52.2446537  49.5327663  26.1935663  52.5124598
  50.9314966  26.7052221  52.7821875  64.1907024  28.7654805  21.7579269
  64.9485588  28.9047146  22.3258138  64.5490503  28.7874389  20.8706093
  39.8963761   9.3270445   2.4789014  40.1602268   9.7431350   1.6582406
  39.4521236  10.0203550   2.9669529  64.0582609  71.9054365   7.2428721
  63.3823395  71.4533663   7.7478433  64.8053837  71.9609976   7.8386539
   7.1594310   6.6445798   4.5180064   7.6099569   5.8577490   4.2111588
   6.9366586   6.4531195   5.4290211  17.1735084  43.9561844  63.2926798
  17.3678625  44.7614479  62.8130865  17.6174450  44.0652037  64.1336679
  75.7532978  48.1719637   7.7892125  75.4977798  48.6355925   8.5867023
  76.7067528  48.2517147   7.7608633   6.6197157  33.5321236  30.0578976
   5.7706779  33.8337278  29.7347856   6.5549225  32.5771880  30.0463176
  79.0416813  65.0168085   1.7418967  79.5736408  65.8022547   1.6141468
  78.6109972  65.1538467   2.5856742  77.6424885   7.4791491  65.6934118
  78.4446001   7.9795378  65.8432770  76.9409466   8.0537933  65.9997654
   1.4385451  60.1017189  11.1826420   1.5373759  59.1901684  10.9077907
   0.4922905  60.2317190  11.2453556  60.3026724  30.0546122  58.6427593
  59.5605469  29.5120096  58.3761740  60.1467514  30.8985996  58.2189608
  22.9657555  27.3763657  48.5257816  23.1780553  27.7685094  47.6787949
  22.0645475  27.6496840  48.6971140  75.6613779   2.0969474   7.4059808
  76.5751028   1.8140556   7.4421573  75.4330969   2.2864133   8.3160484
  68.4852266  76.6781664  15.7034028  68.7289619  75.7704353  15.8846557
  68.8447142  76.8536139  14.8337948  57.0080948  39.2925858  62.6945543
  56.4137650  39.8840570  62.2328568  57.5956488  39.8730373  63.1783819
  32.7156353  75.4163170  25.5571389  32.1860433  74.7296000  25.9623313
  33.6035943  75.2529764  25.8750701  65.4612494  64.2689753   2.3790060
  65.7962227  64.5129967   1.5161735  66.2285328  64.2972565   2.9505897
  79.2997885  15.7280791  11.5951943  79.7922659  15.7660222  12.4151075
  78.4299946  15.4220653  11.8521810   6.7810816  18.1172848  37.2937298
   7.2382069  18.2716322  36.4670229   7.4190837  18.3518958  37.9676318
  36.2050128  74.2630959  22.0960927  36.0179973  75.1031733  21.6771317
  36.2600422  73.6407709  21.3708925  34.3424559  71.6974640   4.4221583
  33.4749246  71.3273525   4.2589366  34.8771763  70.9480047   4.6841082
  70.7199240  26.1996078  43.6388779  70.6325865  26.4346051  44.5626640
  71.1461401  25.3425956  43.6490107  49.5298004   3.5442832  29.3402529
  48.8035583   4.1544902  29.2119813  49.5625734   3.0370772  28.5291433
  33.7182713  32.9999256  66.8820858  33.6939287  32.5269198  66.0502815
  32.9494429  32.6865053  67.3584318  80.1065540  70.8799458  13.8211501
  79.5234823  71.3384628  13.2161534  79.8236656  71.1661577  14.6896482
  35.7153463  69.7816896  25.6907082  36.1382961  70.6218529  25.5133104
  36.2225246  69.1467047  25.1849461  80.3509140  27.8252029  59.1607046
  79.6777916  27.1980572  59.4249630  80.4313374  28.4189773  59.9071598
   9.3014425  71.0971594   0.0917965   9.6837139  70.6448078  -0.6601857
   9.5291865  70.5486059   0.8424292  29.8424077   5.1665998  16.9682193
  29.1745639   5.5286968  17.5505424  30.5471778   4.8908114  17.5542819
  64.7369957  52.7908325  55.8157349  64.7930574  51.9733381  55.3209639
  64.2036009  52.5722122  56.5798807  67.6650953   5.3250557  15.2314138
  67.7788496   6.1106282  15.7663596  66.7239618   5.2852839  15.0613761
  46.1278677  68.5936069  27.3730874  45.5229044  68.1212044  26.8011737
  46.5442324  69.2382860  26.8010211  61.5670776  55.1149988  49.7450113
  62.0489550  55.4958725  50.4791546  60.6952524  55.5060101  49.8021221
  50.3253603  59.6755028  33.1941128  50.9453630  59.6298599  32.4662733
  50.7536459  59.1970110  33.9039350  11.9071829  64.7271061  18.8626468
  12.5492346  64.3385983  19.4568360  12.1181512  64.3557310  18.0060232
  81.3204956  54.4930887  19.4800353  82.1640110  54.7420835  19.1022635
  81.5179539  54.2909098  20.3945661  35.8795094  66.0815382  47.3386431
  35.6604123  66.0657072  48.2702971  36.7755532  65.7473898  47.2976112
   0.7126995  76.1776257  21.8087292   0.1882295  75.4632139  21.4470959
   1.3315374  76.3968325  21.1121511  27.0984912  27.3602390  28.7192941
  26.2040186  27.6117682  28.4893322  27.3058367  26.6408467  28.1228781
  65.3503704   3.0741104   5.7499987  64.5135069   2.9024923   6.1817813
  65.6350231   3.9160752   6.1053866  36.1325908  16.8498671   2.4311814
  35.6409454  16.9907951   3.2402897  36.4991403  17.7087510   2.2209626
  62.1126366  36.6467261   9.2148304  62.6221895  37.2726989   8.7002963
  61.2006140  36.8701100   9.0289646  13.0447519  72.7081680   1.1798463
  12.7021742  73.5922718   1.0485815  12.4057722  72.2865725   1.7544743
  72.0352459  10.0933623  15.3739750  71.4340496   9.4659579  14.9725330
  72.4876022  10.4986787  14.6341622   3.1876564  61.4457560  45.4101086
   3.3007601  61.8715811  46.2598801   3.8180700  60.7255077  45.4173279
  44.7413063  64.6114731   4.4090372  45.2171612  63.8790894   4.8007137
  45.4263496  65.2000475   4.0919822  61.9626141  55.3216648  24.0584826
  62.7985144  54.9102783  23.8387942  61.3030767  54.7437716  23.6747122
  45.7000971  27.1354461  43.2883787  45.2962208  26.8554378  44.1097879
  46.6347027  27.1906590  43.4876299  65.4659367  55.2526760  55.0877094
  65.8288574  55.6364584  55.8859730  65.3214407  54.3325806  55.3085566
  58.1275225  39.4011974   4.6532297  57.7628469  38.6911821   4.1249105
  57.6393223  39.3628597   5.4756790  18.7846744  13.3588731  50.1807880
  18.8569772  13.7711263  51.0416317  19.5052481  13.7338018  49.6743965
   2.8799972  73.0138731   9.7581351   2.7251318  72.8295231  10.6845605
   2.1033865  73.4977627   9.4771343  48.3480263  14.0489995  55.9642792
  49.0603495  14.6680462  55.8042717  47.9241180  14.3719590  56.7594099
   2.7123493  15.4478765  15.5081737   3.4221238  15.9967256  15.1746821
   2.5220403  14.8414063  14.7924876  25.7846689  13.1439662  32.4768329
  26.7016673  13.1756759  32.7494836  25.7825661  12.5716114  31.7096066
  21.0790443   9.2060101   1.9620253  20.6730533   8.3714664   1.7276312
  21.8028879   9.3024045   1.3431612  49.8026276  74.7298717  15.4492462
  49.8051310  75.5987263  15.0476015  49.8054266  74.9013233  16.3909626
  52.6923752  19.4918895  59.0499306  52.0126200  19.4736588  58.3762598
  52.5037193  18.7324226  59.6011543  17.0296383  48.3121443  23.7251568
  17.7121520  47.7296495  23.3918333  17.0738614  48.2133198  24.6762156
  44.7574902  75.0456142  52.7620411  45.3126287  74.6130753  52.1132231
  44.9361563  75.9788227  52.6461315  45.5829048  68.7355089  11.1386609
  45.4579782  67.8498602  11.4796221  46.4122295  68.6940765  10.6624949
  30.5567288  60.9342480  61.8672514  30.3419757  61.7054033  61.3424349
  29.8129797  60.8342123  62.4614429  75.4449320   2.0914987  11.7117858
  75.5854797   1.1571428  11.5586269  74.5568514   2.2552998  11.3944292
  16.2354505  46.7767143  50.3295803  16.6709423  47.2214794  51.0567427
  15.7565403  46.0573339  50.7411242  38.2812524  20.7502127  14.0345120
  38.9128637  20.1170921  13.6932564  37.6631737  20.2229142  14.5406437
  76.2911272  47.3418999  40.4267263  76.9596958  47.7902508  40.9446383
  76.6545677  47.3108864  39.5417523  23.9600730  41.7706585  46.8287754
  23.7595296  42.4371195  46.1716223  23.7774158  42.1972132  47.6659822
  54.7316599  66.0685444   5.3872406  54.4018793  66.7953253   4.8587796
  54.2552233  65.3031254   5.0657260  46.1062813  63.1656122  10.3694427
  45.4842901  63.2380962   9.6454930  46.1084795  62.2344065  10.5909979
  12.2158730  70.0393438  21.1959100  11.3187277  70.2293253  21.4702606
  12.7151382  70.8131504  21.4570475  41.4286947  18.6164916   6.6493875
  40.7185221  18.0903113   6.2819296  42.1270132  18.5654938   5.9967160
  62.5056601  69.0552568   6.2562740  61.7889071  68.4915638   6.5473902
  62.5852299  69.7160673   6.9441915  30.8787584  45.9950399  33.8025928
  30.4388070  45.1745939  33.5799980  30.4747677  46.2675858  34.6264505
  81.7155457  70.0048065  34.3129039  82.3040295  69.6757603  34.9923468
  81.9363689  70.9328079  34.2336297  77.1141291  20.9309196  19.1654587
  77.1534348  21.1146069  20.1040459  76.1803865  20.9529090  18.9559960
  60.2359724  58.9829206  28.8309240  59.7458887  58.7220907  29.6106768
  59.6645117  58.7490559  28.0995059  48.7807846  29.0329242  52.9927921
  49.4811106  28.3944464  52.8581572  48.1724501  28.8770747  52.2703886
  71.1708689  77.6845503  36.5415263  71.6805840  77.1297693  37.1319842
  70.5373526  77.0892906  36.1408377  64.7101784  67.8552485  34.4816685
  65.1295424  67.4990892  35.2649426  64.8733854  68.7971973  34.5299053
  55.1981258  71.5893030  14.5412016  55.3096342  70.9483528  15.2433252
  54.2561102  71.5972853  14.3715668  45.1537323  47.9323292  66.2124729
  44.6446133  48.3987808  65.5495596  45.6059313  47.2430468  65.7260180
  62.1984816  31.2994957  40.1210785  62.4510622  30.9816432  40.9879160
  62.8162909  30.8795476  39.5225930  44.7646093  60.8260536  20.4065323
  45.4363918  60.1455355  20.3637171  45.2332211  61.6070127  20.7010460
   4.7899374  24.3935323  33.1545401   4.4697022  25.2948213  33.1176805
   5.4600418  24.3493629  32.4724531  65.4035473  44.9119234  41.3447332
  66.2966633  45.2515459  41.4016533  65.1206398  44.8282290  42.2553301
  50.5124950  19.5242095  10.3050303  49.8652267  19.0603352  10.8361590
  51.2091160  19.7515416  10.9208786  13.6905110   1.6881873   3.7976077
  13.3113182   1.2250157   3.0506700  14.5211434   1.2411070   3.9600915
  54.3012857  76.5368843  29.2369533  54.2049932  76.0215759  28.4360695
  53.8912296  76.0020161  29.9166608  78.1398964  52.9277039  30.1097727
  78.0352449  53.3080482  30.9819078  77.2451544  52.8125000  29.7897768
  15.7585120  76.1503935  10.5963945  15.2970243  76.1581945   9.7578239
  15.1764226  76.6191006  11.1944890  32.6553726  32.4124694  46.0056114
  32.0998693  32.0215178  45.3312206  32.9264283  31.6736960  46.5505648
  51.4630795  48.0863428  21.4781332  50.9487057  47.3843002  21.8766165
  51.6666555  48.6758852  22.2042370  38.8458180  66.3590670  23.8903308
  39.2123675  66.6953325  24.7081304  38.6075139  65.4535723  24.0891290
  75.3037977  60.6825399   5.3576142  74.7151756  60.4055357   4.6554598
  76.1818838  60.5380011   5.0050408  37.8531146  20.9619808  44.5312977
  37.6841927  21.1177850  43.6020947  38.2612205  20.0965738  44.5587301
  25.1271394  67.1629928  -0.1508226  25.7642034  67.8766369  -0.1839246
  25.2243570  66.7956947   0.7277356   6.1018032  56.5289688  30.4516649
   5.7836741  56.5764904  31.3532019   6.9077653  57.0453501  30.4545474
  39.8446918  65.9215355  34.4916821  39.7926354  65.0969791  34.9750328
  39.5868039  66.5887213  35.1277542   9.3272263  15.1209927  25.4136777
  10.0703621  15.7185948  25.4964685   9.6443170  14.2930555  25.7745171
  60.5316782   4.6433321   2.0195132  60.1025057   3.8382429   1.7299044
  59.8702097   5.0909191   2.5471112  52.8898859  30.1325297  59.9944115
  52.3523760  29.7329307  60.6782436  53.7326097  29.6832204  60.0589943
  76.2115097  76.5092707  14.8499703  75.7135677  76.4472342  14.0348387
  75.6728601  77.0597315  15.4183745   6.8416929   2.4082008  23.9548922
   6.5971345   3.0347863  24.6359301   6.0745585   2.3632078  23.3841801
  73.4175205  73.8482332  15.7504392  73.1417561  74.2573547  14.9301910
  72.6714754  73.9645243  16.3387609  67.8793621  51.1414337  14.3226886
  68.0484247  52.0787096  14.2269647  68.7081528  50.7234621  14.0889382
  19.2472458  69.1797543  64.4287062  19.5890570  68.4920406  65.0000620
  20.0012851  69.4544411  63.9069748  40.8041382  71.8662310  36.6253138
  41.0626650  72.4457455  37.3419476  41.4371443  71.1489248  36.6571045
  69.0021276  46.5676737  59.7396803  69.5767736  47.1912432  60.1837206
  68.1456995  46.6997147  60.1462841  33.3164167  38.4046602  13.8375425
  33.5712242  37.9671359  13.0252135  32.7031493  39.0854692  13.5607147
  65.7098675  43.4390450  16.6890895  66.5451908  43.6353827  17.1132588
  65.8941603  42.6786852  16.1376214  72.9938078  23.7048674  31.0434341
  73.2528400  23.3101463  31.8760967  72.0406246  23.7738848  31.0973382
  41.0334110   3.4891021  61.1474419  41.3605261   2.6545212  61.4831543
  40.2786827   3.6905202  61.7006588  65.5980873  71.2459993  64.9630117
  65.3626251  71.4531565  64.0586472  65.6268930  70.2896118  64.9899387
  50.0239658  30.4940295  57.9651737  50.8683729  30.6223345  57.5330305
  49.3856382  30.5061340  57.2519970  48.6435938   3.9186713   8.6909676
  49.0653467   3.1286958   9.0290463  48.3414650   3.6733297   7.8164637
   8.3983552  75.5648184   5.5789232   8.5551882  74.6229410   5.5118108
   8.4178102  75.7444906   6.5189087  20.4041696  34.7180438  55.1007271
  19.6361244  34.1913915  55.3220320  20.8047795  34.2589235  54.3625164
  80.8813858  28.2703042  19.0560102  80.7884598  27.3780680  19.3899441
  80.2974129  28.7935495  19.6050251  26.9321227  27.6534820  53.7121344
  27.4283504  27.8977036  52.9308891  27.5414133  27.1247077  54.2272997
   7.2938472  13.1679165  29.4134593   6.6966933  13.3305299  30.1436615
   6.7191052  13.0186832  28.6627030  40.2776384   8.1048173  55.8358622
  40.1358747   8.3419448  54.9194002  40.1395988   8.9199531  56.3182831
  39.6360397  10.5524576   4.8833254  39.1051102  10.0911677   5.5325997
  40.4376793  10.0335956   4.8171106  13.1247294  54.1760969  65.8662891
  14.0117180  54.3626451  65.5585861  13.0068457  53.2401323  65.7041073
   8.0412841  64.3206072   3.0315745   8.9958614  64.3509912   2.9676160
   7.8569615  64.5048428   3.9526144  73.7262964  20.0265455  39.4337368
  73.9035559  20.0320792  38.4931087  73.8953638  19.1239965  39.7040176
  49.4839954  48.8167715  15.0514054  50.0124884  48.0892038  15.3793883
  49.9036598  49.0654564  14.2278337  70.3788757  55.7566166  43.4422350
  70.3466511  56.0709286  42.5386858  70.2311897  56.5390825  43.9734316
  35.3661060  69.1589117   2.7758443  35.0749087  69.6664238   2.0183018
  36.2635541  69.4535112   2.9308683  44.3458366  73.9878559   7.8017002
  44.8072815  74.0584803   8.6373520  45.0103569  74.1906166   7.1432686
  25.5799031  65.3033066  56.6469288  24.9066687  64.7793722  56.2127876
  25.8065152  65.9790945  56.0080338  41.6728783  75.4186821  16.7458582
  42.1459579  75.9749651  16.1270058  40.9514809  75.9657335  17.0565915
  65.5188274  54.0136433   0.9200545  64.9970484  53.8857460   1.7122775
  65.5894995  53.1396723   0.5361164  72.9863119  31.0786152  48.0060720
  73.6269331  30.3769398  48.1222057  73.0405760  31.5886474  48.8142538
  79.5962143  32.0143533  26.9553947  80.2193069  31.6976523  27.6093769
  80.0925064  32.6500559  26.4398313   6.8251210  50.3304911  22.9174376
   6.2087464  50.9075403  23.3683586   7.5769025  50.8895540  22.7212024
  30.7138658   2.2806710   8.0908245  31.0369778   1.3799167   8.0691022
  29.8663998   2.2205618   8.5317582  53.6924744  25.3507543  54.2453718
  54.0754461  26.0002351  53.6556768  53.3541203  25.8636618  54.9793148
  38.1213927  62.8136873  46.6379833  37.5381875  62.5378656  47.3451090
  38.0378437  63.7669945  46.6167068  46.1442566  42.2864532  47.8824997
  45.8998966  41.4791679  47.4299479  46.0916948  42.0651340  48.8122797
  27.5521827  14.6183372  21.9965291  26.6503453  14.4768238  22.2844434
  27.8832269  15.3054476  22.5749063  44.1127396   6.8599445  32.9664302
  44.4511271   7.0902944  33.8316846  43.1616449   6.9165200  33.0583644
  66.0662842  19.8470998  43.8986778  66.7376852  19.5200193  44.4973993
  66.2726831  20.7756233  43.7915516  34.3238521  16.2739944  49.4797373
  33.8588691  15.6513834  50.0386477  34.7444439  16.8777180  50.0919914
  14.9474001  42.4977684  62.3315954  15.7337117  43.0280066  62.4611902
  14.2221844  43.1063223  62.4728775  44.4633436  58.4498596  30.6595826
  43.6542511  58.3234835  30.1639724  45.0074387  57.6978827  30.4256678
  27.1506381  43.2620764  23.1792402  26.8748617  42.9284763  22.3254895
  26.3787770  43.1616211  23.7363505   0.6150949  11.3849652  24.8085332
   1.4761603  11.2344074  25.1985741   0.2007570  10.5221105  24.8023844
  27.6828814  36.2099147  30.2699256  27.9045725  35.7422066  29.4647336
  27.7914333  37.1345520  30.0474501  60.2310467  49.6399593  16.8339157
  60.2978659  49.4904613  17.7770042  61.1045504  49.4402218  16.4972687
  76.7775965  25.4682565  64.0225410  75.8781052  25.3212047  63.7300873
  76.8520975  26.4194822  64.0990162  65.5544710  40.5765724  66.7298603
  64.7774696  41.0235739  67.0655489  65.7314920  39.8891544  67.3720074
  70.1669598  58.3166504  37.2930384  70.8560038  57.7251816  37.5957108
  70.3686333  59.1534662  37.7117324  61.8299770  74.8016644  36.4397359
  61.7770100  73.8665104  36.2424660  62.5324059  75.1259327  35.8761120
  44.8971319   0.2886677  19.7806036  45.5660772   0.8696005  20.1429057
  45.0671101  -0.5585334  20.1924157  50.5365467   3.3966005  65.5307961
  50.5035830   2.8199527  64.7674990  51.1406803   2.9624176  66.1330748
  33.5948634  10.6604910  57.5202799  32.7844882  10.8793581  57.9802990
  34.0121341  11.5059018  57.3547506  22.6285362   3.4374878  16.1922312
  23.1791544   3.3916241  16.9738638  21.9213319   4.0362275  16.4322412
  29.8625684  58.3053541  52.3770714  29.6870780  59.1808987  52.7218294
  29.2153263  57.7451229  52.8053761  75.9956741  33.6905432  25.3228784
  75.5058193  33.2230234  25.9994125  75.7180119  33.2839823  24.5020008
  67.9792690  68.6764097  18.9465725  68.4002495  69.0588570  18.1766796
  67.4673176  67.9451036  18.6011350  60.4829788  12.7905881  55.1482725
  61.4288807  12.6605058  55.2159977  60.1047611  11.9791031  55.4869080
  28.0622411  44.4128275  66.6911983  28.9935637  44.3669987  66.4749289
  27.6332092  43.8888073  66.0147619  25.5244613  34.4836497  51.6340637
  25.0523019  34.9800634  52.3025465  25.7700157  35.1371932  50.9792233
  59.3881750  69.6198797  17.1488678  60.0873804  69.8624182  17.7559257
  59.4075060  70.3011465  16.4767575  42.1908474  42.5253630   4.9320343
  42.7101755  41.7213202   4.9388334  42.6352835  43.0922270   4.3016544
  64.0306664  74.4049501  48.5969687  64.7581434  74.8462343  48.1584692
  63.4920359  75.1167679  48.9425468  54.6504545  16.5868700  59.6166277
  55.0852203  15.7393265  59.7108507  55.1401711  17.0316744  58.9248466
  23.1693673  35.4369497   3.8739926  23.2209563  35.5586886   2.9259682
  22.3811030  34.9100351   4.0052646  29.6705055   6.9755363   5.9403932
  29.9778152   6.5077192   6.7168844  28.8062406   6.6041118   5.7634157
  52.4535465  65.8465004  22.0547700  53.2834339  66.2364054  21.7800021
  52.7075148  65.1081514  22.6084661  63.8936567  70.6552029   4.1777608
  63.1768322  70.2673531   4.6797252  64.6423626  70.6339216   4.7737658
  18.5745251   7.9579395   3.5120517  18.5739851   7.5243330   2.6586953
  19.4930744   7.9556435   3.7812954  58.7156534  54.6952486   8.4929180
  58.3521938  55.5537319   8.2758188  59.0336180  54.7898769   9.3907911
  82.0903111  69.5881605  15.2976525  82.7292824  69.2814398  14.6543264
  81.3303661  69.8464012  14.7760940  19.9556816   4.0502381  37.4411130
  19.6950328   3.2348770  37.0127678  20.7547593   3.8255522  37.9177904
  11.1363542  59.8974657  20.2460861  11.7253792  60.4167366  19.6986938
  11.3977528  60.1051235  21.1431813  38.5608196  22.5927520  57.3495483
  38.4591746  21.8374848  56.7703485  39.1332984  23.1892157  56.8671274
  43.2168198  39.9371147  53.1570864  42.7711344  40.7710600  53.0083179
  44.1440010  40.1338863  53.0234909  17.3838151  15.4883182  31.7738509
  16.8853915  16.0642171  32.3536325  17.0944166  14.6059644  32.0060825
  43.8737488  71.7065716  18.6331654  44.7582531  72.0032978  18.8472676
  43.7933922  70.8585072  19.0696967  19.2367744  27.2533274   2.7112517
  19.0168858  27.1199322   1.7892501  19.5463443  26.3981867   3.0097994
  64.2288971  17.7648795  59.2101622  65.0438261  17.2892094  59.3709755
  63.5441017  17.1881068  59.5487165  14.5457399  68.2075739  56.4381027
  15.0994968  67.6671648  57.0016146  13.6540365  68.0303812  56.7375994
  38.1830716  15.2915978  16.5784860  39.1241574  15.4492223  16.6542828
  38.0780792  14.3634319  16.7875671   6.6452491  70.3330708  10.4543030
   6.5847266  70.7136059  11.3305247   6.1930102  70.9595871   9.8893321
  28.2051420  16.2297475  24.1468573  27.7134252  16.9175136  24.5956612
  28.5928249  15.7127702  24.8530221  68.7720537  36.4882660  64.4345140
  68.0842209  36.1653638  63.8524055  68.5958004  36.0618472  65.2731609
   0.9002607  62.8767586  48.1294298   0.5804016  61.9745827  48.1296492
   1.8368688  62.7988577  48.3108902  54.6536064  67.0867300  12.3745704
  55.0445318  66.6138887  13.1093001  55.4017115  67.4137497  11.8749475
  74.6490574  42.3574257  19.5715535  74.4409370  43.0567980  18.9520442
  75.6020880  42.2776985  19.5314479  26.6083455  11.9052207   6.1935222
  27.3451328  11.3180590   6.0243583  26.0107851  11.7570007   5.4605931
  32.4663448  26.3655591  11.1864448  31.5710950  26.5613055  11.4629340
  32.9880571  27.0886254  11.5346158  67.3988914  16.8910551  35.8530545
  67.9399204  17.6719570  35.7359409  66.6518641  17.0276439  35.2703691
  70.6366539  35.2527952  46.3587904  71.0538816  35.0869417  45.5134249
  71.3489962  35.1859760  46.9946718  28.4150934  41.4314699  16.0057271
  27.6428652  40.9568357  15.6981266  28.4746790  41.2145805  16.9361258
  58.4828997   3.2629094  64.9606085  58.8617754   3.3122146  64.0829659
  58.7393808   4.0848723  65.3787327  12.5658512   6.2191361  18.5885108
  13.4328055   5.8804703  18.3650696  12.6949334   6.6793799  19.4178152
   9.9840432  36.4818692  13.1819606   9.6109837  36.3328767  14.0507877
  10.2610326  37.3980379  13.1941330  32.8850293  17.5630867  25.8958745
  32.1944189  17.2453833  25.3141928  32.4177575  17.9043996  26.6583657
  64.6492338  70.6689215  15.3408074  64.0540934  71.3870811  15.1256645
  65.5239677  71.0388041  15.2213871  78.1196451  67.4930239  33.3847404
  78.4018850  68.1975174  33.9680624  78.9306498  67.1627522  32.9981852
  28.0291796  35.1351500  27.8421736  28.2350397  34.3861842  27.2827935
  28.8650632  35.5881739  27.9530764   9.5942163  46.0617781  20.3024030
   9.9961346  46.0395050  19.4339585  10.1653218  45.5176926  20.8446574
  46.9514418  53.1567669  38.4065056  47.6871967  52.5510883  38.4962535
  46.5032768  52.8728151  37.6097941  55.1404381  42.1695042  65.0109720
  55.5294991  43.0151033  65.2341890  55.3826189  42.0285654  64.0957022
  30.9182167  60.2839375   8.3588159  30.0596738  60.7007170   8.4324902
  31.4760828  60.9531212   7.9623127  75.8021355  73.8050365  20.5770707
  76.4780569  74.4435120  20.3496623  76.1742449  73.3126116  21.3087034
  52.6565027  42.5132656  50.6732178  53.4767437  42.1781254  51.0353184
  52.6168156  42.1460867  49.7901344  39.0736365  59.8909235  66.1439228
  38.1561971  60.1442719  66.2456656  39.3147969  59.5186710  66.9921589
  80.2311230  55.1855803   3.8590208  81.1446190  55.2411556   3.5785288
  79.8294306  55.9885788   3.5272583  53.7452841  29.5995665   9.4379574
  53.3345747  28.9188766   8.9048445  53.4014034  30.4202175   9.0850991
  78.1262064  18.5061502  50.5988169  79.0288162  18.2476139  50.7850695
  77.6237440  18.1749606  51.3431787  33.8296366  20.7272601  10.4814279
  34.4863772  20.6282735  11.1707211  34.2956924  20.5111885   9.6737528
  30.5127144  17.4385118   8.9028364  29.9692750  18.1963158   9.1188002
  30.7017350  17.0306897   9.7479308  27.4704957  10.7366145   2.9782024
  27.3558283  10.4019952   2.0887572  27.2526550   9.9951386   3.5429949
  70.1849174  61.1945152  64.3898869  70.8888245  61.1108446  65.0331116
  70.3582668  60.5008221  63.7535143  81.2846375   1.7171021  32.7776980
  80.9088516   1.0013217  33.2902122  80.9267139   2.5105003  33.1759906
  13.3565331  45.7810068  14.7845614  14.0993166  45.2506208  14.4961262
  13.7496579  46.6003704  15.0851011  26.4713883  17.4152482   0.3130676
  26.6482806  16.7628813   0.9908272  27.0762777  18.1314826   0.5063316
  28.5493565   1.2276588  34.1611028  27.7976322   1.0407762  34.7234368
  29.1805530   1.6558063  34.7394729   7.2545928  67.6858902   3.1621173
   7.6382041  67.1576452   3.8621396   6.7918730  68.3886385   3.6184829
  70.0586891  55.7094145  64.0967846  70.2982473  54.9690962  63.5393190
  70.6910276  55.6829691  64.8148918  49.9542475  33.2703185   9.2336941
  50.4618073  33.6999750   8.5452110  50.5573654  32.6305318   9.6120495
  10.4768193  11.0829270  37.9489374   9.8025936  11.6166985  37.5285339
  10.5861723  11.4741766  38.8156533  71.7365074   7.3752362  17.3855054
  70.8945990   7.0771021  17.7297962  71.8515062   6.8816948  16.5734565
  28.1801581   5.9882087   2.6645440  27.4072289   5.6680727   2.1994369
  27.8270626   6.4733183   3.4103477  37.6197457  50.6110668  47.0126152
  37.3113155  51.4708185  47.2988415  37.4934626  50.6149817  46.0637856
  56.9599676  19.4043863  23.3560371  57.4416018  19.2874479  24.1749310
  57.4539280  20.0726295  22.8809738  35.4040980  38.7220669  25.6644797
  35.8335996  39.1503000  24.9239564  34.9043918  39.4200945  26.0879016
  26.7817330  32.3847747  11.4547729  27.7282858  32.3949623  11.5967703
  26.4801669  33.2291675  11.7898726  74.0525484  66.9628429  32.7465558
  74.7310877  67.5063992  32.3461008  74.2183542  67.0270157  33.6871004
  36.0889101  30.3800082  24.8452854  36.2786603  29.6627808  24.2404628
  35.9011841  29.9475145  25.6783152  53.1998110   3.8851011  63.9794016
  53.1778765   4.2865187  64.8480892  52.2922134   3.9185643  63.6771107
  73.4183073   1.8614078  18.4281301  73.4530783   1.0333396  18.9070094
  72.6147604   1.8054695  17.9110074   5.9462786  57.8769112   3.2991132
   5.8783758  58.6808443   2.7840251   5.0702047  57.7513742   3.6637598
  56.5723324  17.2624302  34.2622805  56.2585354  18.1545937  34.4099641
  57.2821808  17.3601866  33.6276221  69.6072578  63.7581921   1.5194169
  69.1624260  64.0276766   0.7158411  69.6656179  62.8050995   1.4527903
  56.5666485  26.9103599  16.0209286  56.2302971  26.6693449  16.8840683
  57.3595953  26.3842893  15.9174180  52.4905396  51.5615749  55.2929449
  51.5646172  51.8029451  55.2676201  52.5096369  50.7357502  55.7765579
  45.1492214  24.4529939  14.2574346  45.0322247  23.6068678  13.8254428
  45.3222895  24.2327118  15.1727247  46.9883347  45.5062723  54.0964174
  46.9479132  46.1926794  54.7623348  47.7139997  44.9466801  54.3730021
  14.2163813   4.8256269  59.3578100  14.2365217   4.9188775  60.3102446
  15.0771821   5.1288778  59.0692091  59.6988678   8.8569367   6.0838681
  59.0770149   9.5842850   6.1060882  59.1730881   8.1001228   5.8249873
  44.6289682  51.4904547  38.2001448  44.1074371  52.2695923  38.0073071
  45.3403568  51.5139818  37.5601363  16.8138266  45.0953865  23.2051206
  16.5223801  46.0051918  23.2646561  17.5742185  45.1249790  22.6244664
  23.2933664  32.1244502  15.1551044  23.7788558  32.1171999  15.9800160
  23.6880112  32.8361678  14.6511757  11.0350037  27.9126000  53.4862709
  10.1964569  27.4977422  53.6886692  11.0864508  27.8949952  52.5306129
  26.0987973  42.7636957  -0.1078099  26.1835265  42.2001791   0.6612830
  25.1664329  42.9767227  -0.1471004  64.6777865  21.9873000  67.2088435
  64.2410937  22.4163724  67.9446617  64.4631925  22.5325633  66.4519603
   3.2062039   9.7728622  63.5127020   4.0016040   9.2888135  63.2907391
   3.4262228  10.2378857  64.3199015  31.1617661  16.4725852  23.8674355
  31.8943977  16.6365206  23.2736278  30.5023384  16.0441959  23.3216619
  71.9635582  38.8664651  48.3470106  72.6077938  39.2179775  48.9615297
  72.1397543  39.3262982  47.5261927  76.4598942  46.8215561  66.1495686
  75.8437777  47.1157408  65.4786825  75.9418631  46.7916441  66.9539165
   9.6987212  19.4366419  19.2628980   9.8552138  19.8356628  18.4070218
   9.0309054  18.7709379  19.0982974  72.0104313  65.2714968  23.9239359
  72.2309637  64.9264097  24.7891021  72.8136492  65.1692581  23.4134245
  26.0336614  19.9914503  22.7838397  25.8969808  20.3384709  21.9022918
  26.2528896  20.7590127  23.3120632  52.6809025  66.1236048  51.3525867
  52.0434237  65.8762884  52.0224285  52.6054382  65.4405212  50.6863022
  74.3680371   0.3709892  34.7549200  73.4952820   0.7597402  34.6965528
  74.3530024  -0.3474423  34.1225743  43.3456802  18.7655926  19.7871935
  44.0594149  19.1119015  19.2515743  43.7195683  17.9955792  20.2155852
   2.8440171  39.3174648   1.0933170   2.7844980  40.2726126   1.0738480
   3.1961620  39.1170597   1.9605327  18.8620257  21.6500711  12.2401428
  18.8336432  22.0407605  13.1135213  19.1835880  22.3518538  11.6741645
   0.3625518  12.0735765  19.8679447   0.1428053  12.8909409  20.3150010
  -0.0173317  12.1686769  18.9945173  74.2624760   0.4614240   2.4665754
  74.1385603   1.3862646   2.2531566  73.6300707   0.0014213   1.9145876
  23.3813953  17.7964365  65.0568438  22.9347348  18.6423182  65.0220633
  22.7040172  17.1584880  64.8323202  61.9471550  44.7620535   8.7124026
  62.8053427  44.8805952   8.3053565  62.0237541  43.9406967   9.1979331
  29.3642330  66.7411089  57.2512627  29.4761419  66.3869619  56.3690615
  29.9582458  67.4909163  57.2854900  43.4433746  18.1247354  26.2093282
  43.7127018  18.8977647  26.7054343  43.6630869  18.3342016  25.3015399
  52.8224087  69.6224213  58.3351707  53.5672474  69.9828053  57.8539610
  53.1959486  69.3191242  59.1626453  39.5157909   5.6805462   2.4652119
  40.4260063   5.9314489   2.6226467  39.1604209   5.5088192   3.3372521
  75.8682585   5.4831928   4.9669731  75.4599857   5.4109854   4.1042268
  76.7263794   5.0725543   4.8609897  75.6146526  29.0663242  61.3880920
  75.4446697  29.8090005  60.8086348  74.9765491  29.1631079  62.0949793
  37.7213621  71.4400291  55.3270912  38.1992626  71.2989569  54.5098162
  36.8044996  71.5057898  55.0601244  48.9611101  34.0134382  46.5865421
  48.7026691  33.3113384  45.9894705  48.9698315  34.8002648  46.0415125
  14.8883212   2.2053653  22.5407934  15.5992413   2.7347058  22.1793747
  15.1399720   1.3022962  22.3474789  15.7437539   7.1981210  21.3205314
  15.9820688   7.3260152  20.4023385  16.0850465   7.9731309  21.7667508
  72.3882866   5.5311263   1.4490616  71.4452362   5.4300809   1.3199092
  72.7555275   5.5017674   0.5656014  39.6954942  54.7245550   7.8107756
  39.7062802  54.1895819   7.0170993  39.1701746  54.2205143   8.4322381
  47.0646000  11.9609499  17.3157811  47.2177410  12.3095405  16.4375651
  46.6917801  12.6954520  17.8033686  71.6506624  19.8813295  18.9806676
  71.4485359  19.9075449  19.9159157  70.8793449  19.4802940  18.5800767
  22.8548503  24.8937273  52.8584576  22.4853325  24.8612213  51.9760561
  23.7128353  25.3023553  52.7439308   6.1473060  74.6510363  11.5065980
   6.9126540  75.1972437  11.6858506   6.3607508  73.8038683  11.8977213
  76.7390490  22.3324299   2.6676777  76.6887569  21.5715837   2.0890445
  76.3876867  22.0222521   3.5022822  31.7091179   7.1572077  24.6708298
  31.7412329   7.3658264  23.7371922  31.6595006   8.0088454  25.1049757
  18.1798482  21.3012958   2.9381838  17.6164818  21.3909459   3.7068278
  18.6986113  20.5158091   3.1117508  68.1352949  75.3162718  53.5971785
  68.6048222  75.9759998  53.0867481  68.7299728  74.5667076  53.6245441
  80.6683350   2.7226302  48.3433867  79.9647284   2.2327615  48.7690592
  81.3933277   2.1001929  48.2868481  82.0246887   7.7416587   1.0954212
  82.4420452   7.1578276   0.4620306  81.1837196   7.9655725   0.6968449
   2.7218002  39.5216966  23.6609054   1.9261745  40.0116158  23.8687277
   2.7782959  39.5506382  22.7058125  41.9789124  75.1823044  61.3413429
  42.3198605  74.5684099  61.9918251  41.9712305  74.6849394  60.5235386
  14.5154810  41.2462854  29.1152263  15.4303706  41.1985779  28.8378549
  14.2240596  42.1127748  28.8315010  11.6348755  37.1016741  36.5783119
  11.0718179  36.7783332  35.8749986  11.1676192  36.8752575  37.3824525
  20.6921220  39.4580436  57.8896761  20.6090140  38.5739136  57.5324106
  21.5060353  39.4374514  58.3930159  37.4645376   9.2275214   9.3936318
  37.4091887   8.3018053   9.6307337  36.5542436   9.5000303   9.2781574
  80.6930161  14.7766054  64.3942690  80.1197624  14.5616090  63.6584806
  81.1183262  15.5941856  64.1355991  39.4944239  67.3648643  21.1968851
  38.9822817  67.3578882  20.3882504  38.8795185  67.0786476  21.8723154
  28.2824254  68.9443111  28.4502864  27.3829246  68.7340784  28.7011600
  28.5608196  68.2026100  27.9130673  53.5299635  67.7165556  31.1327529
  54.4431257  67.9046535  31.3495064  53.1491804  68.5725307  30.9364271
  33.2826161  42.6303482   4.0749040  34.1708446  42.9721785   3.9727655
  32.8044152  42.9771996   3.3217466  28.4404707  13.5371447   7.5012136
  28.2995200  14.4833398   7.4683428  27.6939583  13.1672680   7.0298970
  14.5328355  36.8555450  58.5260916  15.3693545  36.7166519  58.9701414
  14.6282542  37.7052474  58.0958223  81.2152100   8.4620464   7.1357477
  80.3653908   8.7893057   6.8408835  81.7786217   9.2357683   7.1482062
  61.2318277  42.0137882  55.1008320  61.9902086  42.3145342  54.6001911
  61.3683176  42.3692322  55.9790468  25.9049368   5.3945965   1.0855642
  25.4483104   4.5729020   0.9051686  25.4874992   6.0326302   0.5068670
   1.9259748  12.7984738  10.7305300   1.3795221  13.0666029   9.9917960
   2.5957435  13.4794939  10.7926154  52.8203964  36.8527174  57.3410416
  52.1522188  36.5182137  56.7428112  53.6337280  36.8133068  56.8378830
   4.6524420  30.2765083  51.2339544   3.9730459  29.9648309  51.8318748
   5.3270000  29.5980239  51.2633276  25.6366587  23.5364223   9.9432600
  24.8192334  23.1393075  10.2438390  25.4211402  24.4601607   9.8148406
  26.1589980  16.0660672   8.9111590  26.9789529  16.3038182   8.4782851
  26.1125064  16.6460121   9.6712470  30.7232738  65.7963514  19.8760784
  30.4582477  66.3742352  19.1605031  31.3452196  66.3157845  20.3855944
  25.1296282  73.1186867  18.1459033  24.7052169  73.9602995  17.9791749
  26.0539865  73.2739639  17.9517829  18.5876477  70.1219559  52.6594067
  18.0870998  70.1510620  51.8440294  17.9303753  69.9708986  53.3386755
   1.4901820  11.8234682  36.1780310   1.4962228  11.1986423  36.9031429
   0.8141288  11.4956236  35.5849862  56.6760540  54.1136169  54.8705673
  57.3430014  53.4319019  54.7888041  57.0586872  54.8762894  54.4367981
   1.0605680  10.2995849  13.9551902   0.8113915   9.7122157  14.6687317
   1.4857110   9.7303301  13.3137596   8.8541406  69.5885992   8.8977307
   9.4449228  69.4524288   9.6384513   8.0054557  69.7748041   9.2993432
  75.7123804  53.5340166  62.4098778  75.8020544  52.6178265  62.6721573
  76.0486460  53.5607243  61.5140867  28.6670804  16.3768780  17.3383939
  29.3789625  15.7387221  17.3854160  28.0659485  16.0174739  16.6859365
  11.3234937  65.6666946  52.6273680  11.9922936  65.4495764  53.2768297
  11.8038070  65.7335711  51.8021059  42.2451210  28.2930207  63.1934166
  41.4818764  27.7776957  62.9324055  42.9657269  27.6631451  63.2081747
  15.1201165  13.9979064  47.1462154  15.0725758  13.6941063  46.2397528
  14.4024289  14.6262038  47.2262001   9.4322765  11.7883694  19.3251646
   8.7512422  12.1220660  18.7411523   9.9426848  12.5619447  19.5645332
  40.6261539  69.8366785  13.4284222  40.6131172  69.0914917  14.0290523
  40.9404850  69.4720125  12.6011097   5.0242752  32.3042464  15.6992280
   4.9532321  31.4162302  16.0493863   5.2341455  32.8456807  16.4601719
  51.8172455  14.8294163   5.0960797  52.3574305  15.5397797   5.4422265
  51.8954039  14.1307187   5.7456529  10.0004578  13.9162064   2.5909880
   9.4848520  14.2205405   3.3378237  10.6413746  13.3155084   2.9712757
  78.5250854   7.6545197  18.4060085  77.7269793   7.3630935  18.8468409
  78.6387825   8.5611600  18.6911523  52.2843981  25.4385185  56.9063663
  52.9480362  24.9190593  57.3602200  52.0360184  26.1139607  57.5374889
  61.9742632   7.0065510  21.7205548  61.4540577   6.2034839  21.7470717
  61.7875051   7.4404967  22.5530481  36.5218401  57.3001575  30.1118493
  36.5959311  58.1708145  30.5026197  36.2506223  57.4652100  29.2088389
  74.7398186   9.0627480  14.7518647  74.4940186   8.5127205  15.4956949
  74.8013830   9.9455225  15.1167631  38.6306953  65.4246902  43.4450960
  37.8474927  65.7011938  42.9693079  38.5174370  64.4818687  43.5654640
  14.7373211  35.1732755  24.5791340  15.2660668  35.4368019  25.3322697
  15.3756011  35.0006914  23.8870049  55.6122637  30.7764173  53.8316011
  54.7780132  31.1823177  53.5960197  55.6423616  29.9724507  53.3129835
  28.0771518   9.5660877  17.4748302  27.8543162   9.4016373  16.5585709
  28.9345360   9.9902809  17.4403918  11.4238942  47.3915148  32.5811863
  11.9820333  48.1212997  32.8497458  11.0510468  47.6702976  31.7448258
  47.3484945  38.1340623  16.7586339  46.5415859  38.4090495  17.1939576
  47.2746611  37.1817255  16.6967058  73.1478930  73.1082296  20.3733587
  73.9841461  73.5717916  20.4182744  73.0637503  72.6827765  21.2266707
  17.8916633  23.9779496   5.1429319  17.1322417  24.4940567   5.4133844
  17.6358342  23.0705476   5.3084826  45.3232384   1.2738560  51.2317610
  45.4150009   0.4733098  51.7484236  44.4086456   1.2731515  50.9493732
  17.8908932   1.4915648   7.8567743  17.7918315   1.9522411   7.0235896
  18.8207972   1.2683778   7.8979719   9.8788035  52.0716572  13.9077902
  10.4210532  51.6684198  14.5857275   8.9799702  51.9346380  14.2070520
  69.9407578  17.9290831  62.7958870  69.2022038  18.1063128  62.2133350
  70.2055979  18.7914085  63.1160164  57.0525837  14.0659320  49.7303724
  57.9493427  14.1756392  49.4141102  56.9003916  13.1215298  49.6961355
  23.4386778  59.1732454  14.9520493  23.1026745  58.7808943  15.7579005
  23.4116483  60.1160336  15.1153052   8.5828626  14.6015477  15.4346871
   7.6734298  14.8511541  15.2707970   8.8361657  14.0979958  14.6610570
  13.4675217  42.0941067  26.2483478  13.0543053  41.2988949  25.9120131
  12.9258978  42.3477602  26.9956994  13.2242084   4.4047743   3.3769205
  14.0964782   4.7448882   3.1776702  13.3426559   3.4562504   3.4269688
  13.1335211  15.5163252  15.3102446  13.1884706  15.4903793  14.3549752
  13.6618769  16.2743974  15.5600417  69.8802948  41.7165232  57.0287228
  69.0583372  41.3041782  57.2944117  69.6840668  42.1183634  56.1824083
  72.8540802  53.0542994  56.2464046  72.0169163  53.5036516  56.3624620
  72.6495600  52.3088837  55.6818151  51.5634394  45.0660038  56.7774391
  50.9511614  45.4965305  56.1807871  51.0062313  44.6677685  57.4461365
  31.7900109  46.3669825  15.0083315  30.8336663  46.3266373  15.0052667
  32.0665669  45.4773140  15.2279592  22.1073031  76.5377522  51.6329050
  21.5900469  75.8441257  51.2235641  22.8408289  76.6750240  51.0334635
  42.7574444  24.4214106   3.9664188  42.0006180  24.9791813   4.1462567
  42.4546385  23.5354042   4.1652575   3.7559921  56.7396688  46.9434023
   4.5089874  56.8418598  46.3613462   3.0241406  56.5482712  46.3568926
  41.9401169  20.2718449   8.9510810  41.8407011  20.0208306   9.8694170
  41.8527460  19.4504392   8.4674573   6.4383405   3.0305812  58.1035757
   6.5074462   2.3534411  57.4305725   5.6011963   2.8562105  58.5337114
  65.6285620  62.2801638  61.2766933  66.4496040  61.7894125  61.2407827
  65.8556700  63.0944300  61.7257214  13.9810061   1.4107302  47.9931736
  14.9014485   1.3349847  47.7416134  13.5027754   1.3776571  47.1646595
  20.0042462   1.1376828  15.8545876  19.6912801   1.7087153  15.1530135
  20.1861644   1.7311394  16.5832484  24.2995262  39.4708085  66.1738586
  24.2391825  40.0445986  66.9376326  24.9302340  39.9035764  65.5984020
  10.7258272  26.9129133  33.0238414  10.2515233  27.2294044  33.7926722
  10.0395346  26.6613531  32.4058199  79.7908735  63.5540247  47.2881031
  80.0295925  62.6363564  47.1572399  79.8692131  63.9481258  46.4193201
  40.2446985  45.8590412  15.5078566  40.5070448  45.8498812  14.5873547
  39.5093203  45.2479935  15.5534124  50.9933424   6.8778932  65.3422260
  50.5423212   7.7061284  65.1783991  50.3270388   6.2079549  65.1890802
  79.6001387  74.9354315  64.5501900  79.1945124  74.8133516  65.4085588
  79.8586035  74.0543079  64.2799234  22.0359993  47.6848984   4.0634489
  22.9783320  47.8205872   4.1625938  21.6522288  48.5482311   4.2170992
  16.3747656  11.9964457  58.2770729  15.9273374  11.4171183  58.8938570
  16.4837372  12.8179824  58.7560654  70.7642698  20.1831269  57.4394226
  71.4506674  19.5463705  57.6384926  71.0606337  20.9926796  57.8553867
   1.3517106  68.9724827  57.3627377   1.8838078  69.6887255  57.0161819
   1.7286448  68.1837225  56.9728565  26.3506484  74.4036627  43.5091543
  26.2726188  74.1063976  42.6026344  26.3050222  73.6012840  44.0290928
  76.1766005  67.5107479  48.5622692  76.9233465  66.9773293  48.8344145
  76.3514900  68.3751774  48.9342976  42.5454950  47.0533371   2.4940953
  41.6002321  46.9165611   2.4308756  42.7238703  47.7753067   1.8914539
  45.3105783   2.9110387   2.2441021  45.1353312   3.7950730   1.9216084
  45.5094004   3.0299222   3.1728476  17.6415527  72.7770519  41.9662619
  17.2569346  73.3653593  42.6160288  18.4218884  72.4247694  42.3942900
  14.8951578   6.8139434  64.7777891  15.4922700   7.0766008  64.0772915
  15.2184963   7.2731912  65.5528879   8.0841279  75.4333305   8.5520208
   8.5336643  74.9119329   9.2170739   7.5976044  76.0896921   9.0507370
  64.6091413  33.7415361   4.1562074  64.3386841  34.3311310   4.8601002
  63.7916088  33.3611035   3.8350433  68.7116385  57.0021629   1.3472477
  68.2433224  56.4314222   0.7380117  69.5770359  56.6022110   1.4330079
  67.6809311  46.5018368   1.5163626  67.2131205  45.7408190   1.8602201
  68.5869503  46.2060595   1.4276347  29.1437173  35.4127979   6.0714501
  29.1016293  34.5823264   6.5455562  29.4832206  35.1785398   5.2076840
  35.4569578  19.8853886  55.0771904  35.2544594  20.1625800  55.9707165
  34.6867013  20.1374245  54.5678616  76.7805290  60.7376766  59.1825438
  75.8809662  61.0525799  59.0938902  76.8477297  60.0232649  58.5490370
   5.0151211  25.2075410  51.0903597   5.4900044  24.5685863  51.6218233
   5.3964049  25.1228499  50.2164745  67.9948854  63.7392902  19.3771172
  68.9200115  63.7189150  19.6219814  67.7962828  62.8399658  19.1163397
  62.5052357  45.4927778  48.2904100  63.0171967  46.2679052  48.0595303
  61.7231369  45.8410692  48.7184763  69.5636654  22.6878715  14.8265934
  70.4816389  22.4583530  14.9710822  69.3220997  23.2045269  15.5953228
  18.1333601   4.3793145  32.8466630  17.8905368   5.2982742  32.7336049
  17.4622834   4.0242279  33.4295869  23.4075165  31.2094498   1.7651625
  23.9896083  31.9512320   1.6003580  23.3312058  31.1720896   2.7185839
  50.5344439   9.7075021   8.8774288  49.8653841   9.7922391   8.1981564
  50.2921724   8.9138478   9.3545568  10.7949507  73.5950089  18.1579936
  10.5415821  74.5177555  18.1819344  11.3426435  73.5172081  17.3768342
  39.8215365   4.0812990  24.9934220  38.9112067   4.3098292  25.1813149
  39.8282671   3.8730276  24.0591788  60.7478952  69.6121645  62.5742674
  59.9132776  69.5286083  62.1131134  61.1360073  68.7384415  62.5272942
  28.9959621  30.4837894  66.3107824  28.0414319  30.5546451  66.3200474
  29.2639112  30.7425857  67.1925211  29.4260335   9.7304124   0.2342410
  30.2407813   9.5155209   0.6883734  29.2280579  10.6259084   0.5083305
  75.0980854  63.0407429  50.6477165  75.5669641  63.3097696  51.4376593
  75.6721497  63.3020973  49.9277353   9.6366894  31.5084887  12.1122730
   9.8630023  32.2882557  12.6192045   9.0570378  31.8312621  11.4223063
  66.6472673  45.4265356  12.3188353  66.6330624  44.7379160  11.6541290
  66.0444212  45.1186371  12.9955971  58.2562494  12.2378182  45.4381227
  58.7587976  12.7113259  46.1010456  58.5454512  12.6118934  44.6058559
  52.4383450  14.7969365  51.5897799  52.7426434  15.2756846  50.8187866
  52.5818920  13.8759780  51.3719273  20.4272509  52.2530794  60.6863308
  20.2740073  51.3494349  60.4103327  20.6961536  52.7053976  59.8867464
  30.6460476   2.5353539  59.6299171  30.4588723   3.3345792  59.1375351
  29.8869896   2.4232963  60.2021933  32.7488446  66.9708776  41.8153286
  31.8809032  66.6750193  41.5407801  32.8204322  67.8594017  41.4665747
  37.6947808  16.1118186  49.4741011  37.2942042  16.4271164  48.6639404
  38.4508848  15.6012416  49.1845274  28.1946659  31.3837719  45.5554295
  29.1472030  31.4593911  45.6118822  27.9528689  31.9467592  44.8200321
  70.3281069  44.3433809  64.5626593  70.9050465  43.8341188  63.9934206
  69.5509338  43.7947321  64.6685648  43.4812212  69.1613626  19.7189808
  42.9825115  68.6528969  20.3585005  44.3273640  68.7168789  19.6669352
  48.9113998  55.3829575   5.6393480  48.0266523  55.3786659   5.2740687
  49.1073275  56.3090420   5.7815284  51.7601824  57.5894403  21.2114143
  52.2375917  57.9659176  20.4721045  52.4423361  57.3387051  21.8343353
  64.8998976  19.5510924  55.2921438  65.1183224  19.8869348  56.1614752
  64.2718363  18.8480163  55.4578447  19.1636574  41.5659237  59.8129988
  18.9029300  41.2462521  60.6767464  19.1118479  40.7957983  59.2469120
  77.7504921  76.8274736  36.7875266  77.8888798  75.9701347  36.3849759
  77.3871469  77.3662329  36.0847092  51.4421177  63.8099575  27.9896545
  50.7519197  64.4338703  28.2145691  51.2039709  63.4931421  27.1183658
  31.4454246   1.1374708  29.3398643  31.0737729   0.8760115  30.1823306
  31.8116951   2.0073359  29.4992757  47.4876308   5.5029905  29.7213316
  46.8893433   6.2501729  29.7205305  46.9725180   4.7840834  30.0874758
   1.6788580   5.7390261   2.1154284   0.9977395   5.6118912   1.4550149
   2.3858866   6.1836159   1.6477935  26.5523577  72.9232216  24.3116760
  26.0352254  73.3294630  25.0072145  26.4653826  73.5203457  23.5686350
  13.6895943  70.7059002  57.3361206  13.9639509  69.8152828  57.1175766
  14.1347826  70.8979368  58.1614447  20.9963512  20.5208731  56.9166994
  20.4393864  20.0897622  57.5648975  21.1677027  21.3870430  57.2863245
  38.0793381   4.3934807  62.4599504  37.3405647   4.6856302  61.9260073
  37.9263663   3.4574106  62.5888062   9.0064549  28.7830567  13.4944701
   9.3494415  29.6667004  13.6277640   9.5394790  28.4236956  12.7852619
  50.6370640  56.5961885  32.8095412  51.4864540  56.3648510  32.4337053
  50.8107424  56.7060566  33.7444210   3.5892579  69.2652225  60.6492615
   3.1226221  69.9450874  61.1353302   2.9904109  68.5184860  60.6471539
  37.5127816   5.8287871  35.4930520  38.2758713   5.9383982  34.9256802
  37.0669913   5.0551522  35.1480985  11.8794870  52.4402285  38.5922122
  11.9806242  53.0936623  39.2843270  11.2176859  51.8358278  38.9282990
  20.9396219  10.5186951  54.4552422  20.1476645  10.4670703  53.9201069
  21.6283464  10.1537907  53.8996029  46.0009480  59.1272020  58.8607693
  46.5166759  59.7179794  58.3119154  46.5394258  58.9937592  59.6408129
  45.3206444  68.3457327  15.6301558  45.2873516  68.8623571  14.8250341
  45.0635481  67.4642038  15.3598869  67.8019571  52.8452301  48.9090776
  67.8985548  53.7011337  49.3266106  66.9667196  52.5117588  49.2368031
  53.8595819   5.5734342  49.8757315  53.5696459   4.9357784  49.2233801
  54.6605396   5.9459621  49.5070457  58.0153990  34.8541284   3.6962962
  58.2416058  35.4976487   4.3678212  58.6076355  35.0479078   2.9697010
  64.2443228   5.2161670  59.3027925  63.4755754   4.6603924  59.4307518
  64.0384626   5.7342803  58.5247135  54.2641783  18.5541332  16.4263940
  54.2662573  18.7622976  15.4921055  53.9280224  17.6590431  16.4716005
  21.8414879  29.3108749  33.1936526  22.1541977  29.2751789  32.2896767
  21.3968563  30.1559305  33.2600880   1.5053499  77.0182657  49.0483379
   1.8542124  77.2245073  48.1811619   1.2335599  77.8641272  49.4045401
  18.6546090   0.4168609  63.5413408  18.9072994  -0.3782364  63.0720806
  19.3312648   0.5258945  64.2095280  73.4466267  58.9598751  11.7105389
  73.4615564  59.8378563  11.3295424  74.1470289  58.9699316  12.3628926
  18.0650735  26.0936451  52.2767115  18.3157098  26.9347000  52.6588631
  17.5976455  25.6412840  52.9789305   9.7368890  26.4812660  57.2893810
  10.6516790  26.4363813  57.5675440   9.7772932  26.4857888  56.3330460
  58.8288164   2.8230822  58.7144423  58.6738443   1.8789193  58.7422228
  58.2831860   3.1761381  59.4172001  71.2470818  56.2334871  48.9222527
  71.1539888  55.4107237  49.4024897  70.7338142  56.8646336  49.4266796
  57.9432631   7.9872084  48.1792736  57.7591133   8.6288416  48.8652945
  57.6528025   8.4103870  47.3713207   3.7176651  69.7864151  14.9326301
   3.0637050  69.8255920  14.2347515   3.3835950  70.3774786  15.6073689
  23.2067132  77.1260691  22.4041486  22.9099798  77.6442909  21.6560698
  24.1619253  77.1468067  22.3460889  11.6187894  13.1062138  63.4065628
  11.3957441  13.5125232  64.2440557  12.4485338  13.5127366  63.1565762
  12.8895974  54.8950100  62.1685314  12.3007834  54.1565418  62.0129824
  13.7621975  54.5028877  62.2008514  80.6352234  12.0877993  28.3748507
  81.2446117  12.7565861  28.6872697  81.1892509  11.3328648  28.1764507
  43.8898516  15.4930663  49.4694805  44.1809654  14.9660993  48.7253094
  44.5885706  15.3996849  50.1170158  25.9823155  16.0819089  58.7421227
  26.6906786  16.2547207  58.1219721  25.8610582  16.9112587  59.2044067
  75.5280781  15.6649446  49.8627758  75.7124949  16.2967169  50.5578232
  74.8948956  15.0606334  50.2502298  39.1001582  34.1188669  34.6621108
  39.3777466  34.4353938  35.5217528  38.3711386  33.5272861  34.8486519
  61.2911797  27.8934979   5.7783508  61.0208941  27.8567767   4.8608389
  62.2460747  27.9506993   5.7446349  46.0263205  57.7228689  26.1379719
  45.7217932  58.6300755  26.1597490  45.5229139  57.3181343  25.4315734
  45.6998491  66.1802959  51.0576916  45.8026314  66.7368698  50.2857542
  46.0688543  66.6953516  51.7751789  22.4018431  60.9066153  46.0584831
  21.8992758  60.4183102  45.4063940  22.5209975  60.2894449  46.7803812
  58.8981628  47.3308468  19.1665339  58.7747812  48.2366705  18.8828349
  58.3414745  47.2442865  19.9403787   7.0165610  73.4559059  52.3396444
   7.9676497  73.4865570  52.4431992   6.6741967  73.6574268  53.2105112
  48.8062859  72.8541470  50.6854439  49.6298409  72.6094818  50.2633905
  49.0403843  72.9972839  51.6024733  24.4796300  46.3743162  51.3419676
  24.5884562  46.2600660  50.3978634  23.8971543  45.6613493  51.6039419
  27.1847725  26.7375684  58.6447001  27.9905653  26.2606502  58.4460163
  27.4754405  27.5025105  59.1412973  31.2017417  61.1272573  45.8947945
  30.6828356  61.8874121  45.6318712  32.0090246  61.4994955  46.2497091
  24.9338245  28.9304852  54.8877048  24.5237184  29.0447640  54.0303898
  25.7880163  28.5439038  54.6949768  41.9484854  13.2705009  57.5069666
  41.0409641  13.0605185  57.7272844  42.1251345  14.0877581  57.9729271
  80.5640984  55.8648634   9.7613680  80.7939053  56.6992903   9.3525273
  80.3347778  55.2939749   9.0280670  70.0386810  25.2327681  24.8385787
  69.7483826  25.2350330  25.7506943  70.5265808  26.0504270  24.7404814
   7.6358098   4.0368888  49.2833614   7.8092057   4.9048078  48.9188290
   8.4456128   3.8010374  49.7359324  57.6420021  46.2321091   5.4135484
  57.3530245  46.9037390   4.7957838  58.5681820  46.4242077   5.5602634
  48.9151287   4.8711643  51.8263006  48.1119823   4.3537831  51.8855381
  49.6160555   4.2481843  52.0182037   9.5115161  73.2950020  50.0436687
  10.0050819  73.1313276  49.2400312   8.7308741  73.7667894  49.7534180
  82.5037575   5.4395926  48.7507963  82.7768135   4.7144371  49.3127775
  81.5492630   5.3737926  48.7217093  70.5628347  46.6078901  53.2237291
  69.9198198  46.9662142  52.6118708  70.0454617  46.3309050  53.9799261
  18.3372152  61.2743330  53.5792637  18.1161535  60.7220936  54.3291950
  18.6722910  62.0825577  53.9674997  14.8699594  16.5311956  25.8429646
  15.6231642  17.0848477  26.0488367  14.4495881  16.9650793  25.1004910
  24.6108937  28.4322405  50.5586243  24.0855122  28.7443781  51.2953568
  23.9695954  28.0962014  49.9324894  23.7490344   6.0480291  42.8932524
  23.4666657   5.7176948  43.7461138  23.0422282   5.8036947  42.2957897
  79.1681051   3.7414423  16.7031848  79.4939280   3.0918017  16.0802579
  78.3837223   4.0995044  16.2875319  34.4512367  10.3871477  49.5141888
  34.7579479   9.8627412  50.2538872  35.2001643  10.9367359  49.2833376
  45.4002953   7.2780424  62.7504921  44.8772097   7.9696572  62.3451710
  45.4137087   6.5756691  62.1003199  10.9482062  75.2219534  42.3423958
  10.5655575  75.9937286  41.9250488  11.0723960  75.4803324  43.2556581
  62.0132685  57.7009535   0.2981076  62.9247856  57.4097919   0.2737771
  61.9427681  58.1996155   1.1121098  37.4821115  11.4929295  12.4222553
  36.5377736  11.5095341  12.2667491  37.6284599  12.1724093  13.0803752
  30.3036904  17.1484900  60.3265810  30.1966500  17.0465505  61.2723017
  29.4980693  17.5782275  60.0393009  71.0645771  24.5869613  22.5419998
  70.5780411  24.7111702  23.3569145  70.4048252  24.6723199  21.8537617
  23.5467863  47.3274469  40.8624363  24.0672827  47.2548914  41.6624689
  23.5109186  46.4349842  40.5182695  18.7893474  24.7958398  55.7030916
  19.3937111  25.0308776  56.4071751  18.9776361  23.8747144  55.5233479
  69.3461084  48.1672382  46.0854912  69.9607897  47.4914980  46.3714409
  68.7148046  47.7005243  45.5378866  56.8848372  66.8625975  22.3430347
  57.4596977  66.6649008  21.6036534  56.0368919  67.0544767  21.9425344
  80.8247566  59.1716719   0.8114808  81.5796661  59.7515774   0.9117670
  81.1908531  58.3608389   0.4582694  72.1127605  54.9417448  19.0192366
  71.3548803  55.4868078  19.2307937  71.7574215  54.0561008  18.9444149
  46.4614344  20.1059937  63.8777256  46.9786739  20.6555319  63.2889128
  47.0647192  19.8792934  64.5854568  72.0324612  14.6914291  34.7708082
  71.4043999  14.3992639  35.4314208  71.8859434  14.1078424  34.0263677
  81.7789043  58.0429983   4.8375979  82.6174904  58.5045242   4.8391485
  81.9823066  57.1754932   5.1873028  23.1944513  48.7918282  36.1984301
  22.5642490  49.3004465  35.6881523  22.8390908  47.9030371  36.2006903
  14.2888939  14.0495801  26.7933083  13.4085166  14.4092512  26.6846561
  14.8724663  14.7883165  26.6202593  21.0226655  38.3275795  10.0581241
  20.5373311  37.5995874   9.6699077  20.9390211  38.1947327  11.0023618
  16.4786220  46.3116169  47.6318884  15.8750033  46.9578123  47.2654104
  16.5214729  46.5254354  48.5639143  77.0517349  40.2425003  17.3240638
  77.9231644  39.8465466  17.3165393  76.7941332  40.2720881  16.4026523
  43.1113672  39.9117446  56.1400032  43.3525896  39.3594146  56.8836260
  43.0465794  39.3052912  55.4022694  49.4043779  45.9016418  19.0445638
  50.1871872  46.0409069  18.5116053  49.7311544  45.8575249  19.9431741
  56.7698956  50.7773209  57.0242310  56.9745064  51.1265564  56.1568213
  57.5570107  50.2968216  57.2807503  54.4750738  19.5747805  53.2274675
  55.0422287  20.3424263  53.3001900  53.7183523  19.7833061  53.7753010
  36.1064148  38.4626961  13.9673555  35.1726508  38.2597327  13.9114404
  36.5377593  37.6081944  13.9659166  26.0615873  27.5350833   1.6175991
  26.4378953  28.0723286   0.9204666  26.8194938  27.1872139   2.0874894
  46.3774872  52.5825024   2.4384925  46.9559336  52.5992727   1.6760290
  46.9200516  52.9054785   3.1578979  46.5194559  21.6631460  40.6594706
  45.8851194  21.0366774  41.0078812  46.7971373  22.1716762  41.4213848
  69.3396807  29.7269249  14.6452570  69.4888830  29.2072701  15.4351485
  68.4364653  30.0331020  14.7270525  48.4208107  36.7415118  57.4802637
  49.0760803  36.1983776  57.0422459  48.8843489  37.1206498  58.2270002
  54.0497160   3.8552642   4.8971570  53.6258078   4.3906784   4.2264360
  54.9710989   3.8328245   4.6387285  35.3082132  65.9724331   7.1253002
  35.9418392  65.3564024   7.4930733  35.1928854  65.6852102   6.2195212
   4.1787502   5.9726435  13.6501038   4.2361152   6.8264568  14.0789914
   4.7151750   5.3952271  14.1933084  28.4586430   5.5062860  62.6815605
  28.7435627   6.2343425  62.1293020  28.9449477   5.6204396  63.4980822
  73.1639576  32.5799084   2.1079654  73.4811020  31.8202019   1.6196036
  73.8545561  32.7599216   2.7458569  66.5442419  22.3386455  47.1081495
  66.7863512  22.0439696  46.2302065  67.2394180  22.0025015  47.6738119
  71.2086105  43.1505632  53.9374828  71.4556551  42.4445248  53.3402300
  70.3507042  43.4387732  53.6257696  43.9066935  13.0879676  52.1167135
  43.2732773  12.7832103  51.4669943  43.4183359  13.1003416  52.9398727
  20.1741815  21.7071223  44.0946722  20.6995249  21.0168457  44.4993544
  19.8412967  22.2183394  44.8322868  16.7362130  55.6073141  47.8504705
  17.0665622  56.3700104  47.3757076  17.0718193  55.7153082  48.7403774
  10.1283336  62.8620195  35.3305840   9.2842287  63.0052042  35.7586193
   9.9607652  63.0397367  34.4050717  80.8511734  74.0388441  49.2840481
  80.4000568  73.2409382  49.5598602  81.7482376  73.7570572  49.1048622
  12.2060597  72.0851517  52.5341511  11.3616061  72.4784422  52.7542686
  12.6727498  72.0373011  53.3685017  50.2503109  44.3937063  14.5520508
  49.7114897  44.3678856  13.7613297  49.6350670  44.2290354  15.2666092
  27.9789615  29.9615574  63.2787943  27.5753164  30.2744484  64.0883636
  28.9074540  30.1724696  63.3770275  30.7078433  61.5526676  18.0462503
  30.8123088  62.4259615  17.6685309  31.4880610  61.4307928  18.5872114
  24.7825360  14.2810071  64.3394279  24.3713832  14.3669736  65.1995420
  25.2433920  13.4428918  64.3769455  27.7695370  19.9417257  40.0680065
  27.7585363  20.2950501  40.9575415  27.1576023  19.2061687  40.0948715
  42.3601484  39.1134095   6.9058430  41.5573645  38.8145757   7.3329979
  42.1236515  39.1952944   5.9819412  76.9967318  68.3255243  20.3354597
  76.1355877  68.7385607  20.3992057  77.1493530  67.9545355  21.2045431
  36.4910603  12.0488513  43.2119894  35.6194639  12.3147345  43.5050011
  37.0862103  12.6616800  43.6438131  34.7095394   8.4252149  51.4051771
  33.8092756   8.3893782  51.7284012  34.8896933   7.5363404  51.0991049
  26.9531989  67.8504181   6.0926294  27.2703719  67.5206995   5.2518445
  27.5450659  67.4660540   6.7393059  18.9013755  16.5583062  54.3183613
  19.1809082  17.4513042  54.5199728  17.9775298  16.5344691  54.5677042
  60.8248043  54.9314880   1.9585411  60.9063005  55.5149269   1.2040965
  60.9186840  54.0520525   1.5924618  28.2671118  34.2891335  63.2813025
  27.3141789  34.2075348  63.3199453  28.5392880  34.3537021  64.1967154
  46.3854837   5.8808178  60.4106379  45.4918718   5.6608295  60.1473999
  46.7023897   6.4624959  59.7196579  51.7184830  33.8908315   4.3765149
  50.8829784  34.3208075   4.1940898  52.0050812  33.5543227   3.5274827
  73.4013414   0.1982538  25.7194805  72.7678633  -0.1293814  26.3579059
  73.5805845   1.0960269  25.9989595  27.5814009  32.6984882  52.6461792
  26.9847035  33.3267379  52.2393751  27.3924398  31.8694568  52.2065973
  41.7032862  62.2064972  29.6774602  41.0784388  61.5012169  29.8459244
  41.8763399  62.5842190  30.5397868  63.7050200  34.2271280  60.3353691
  63.2034874  33.4322572  60.5166864  63.7194014  34.6967149  61.1693430
  68.0945158  40.5405998  53.9471722  68.4633160  40.8441067  53.1176519
  67.5324678  41.2593079  54.2366314  19.4632268   1.6877642  33.5674334
  20.0687075   2.2853887  34.0061450  18.6812687   2.2154593  33.4052229
  61.8316984  65.7914400  24.8270059  61.8303823  65.6784058  23.8765049
  61.2692118  66.5509415  24.9786639  57.1061230  57.4151468  10.1405036
  56.7800617  56.9937134   9.3453258  57.9610634  57.7666283   9.8919684
  41.0260820  22.3995256  50.7722521  40.8893728  21.5392447  51.1690569
  40.3239346  22.4798298  50.1266718  73.6426449  39.4386864   7.1443897
  73.3997393  40.0533295   6.4519715  73.7765598  38.6068583   6.6901195
   2.3425573  72.2247744  12.3876762   1.5251406  72.4025679  12.8529191
   2.9917166  72.7758694  12.8248477  77.8965855  65.0425339  15.4405308
  77.4336576  64.5830584  14.7399533  77.5895500  64.6243429  16.2449384
  49.6343374  41.5892649  55.4769468  49.2907524  40.8037424  55.0513411
  50.0150108  41.2710953  56.2955332  62.4261618  44.0792799  56.9395256
  62.2280216  43.8248634  57.8407717  61.7678356  44.7409010  56.7271805
   7.4926794  69.7864294  30.2159572   7.2484261  70.7042122  30.0965810
   8.4039485  69.8170471  30.5073023  69.3247986  23.7131357  41.3350916
  68.9411545  24.5646262  41.1252975  70.2512789  23.8989568  41.4878559
  74.2610645  11.2749541  43.8669157  74.6816921  12.1336246  43.8223219
  73.3271313  11.4695263  43.9452791  75.5170536  61.7971754  19.3161762
  74.8255634  62.3444796  19.6883678  75.2601480  61.6752481  18.4021938
  39.1747522  70.6674576  50.5487537  39.5886350  71.5135098  50.3780937
  39.0319347  70.2911615  49.6802855  56.2357759  67.1900749  17.0695281
  56.8267870  67.6973104  17.6259947  56.8064690  66.5677786  16.6186559
   0.7662504  47.1883631  58.2416773  -0.0992201  46.7800379  58.2632494
   1.0520877  47.1922398  59.1551971  46.6490793  38.4182024  59.4961929
  46.9107342  39.3362927  59.4263506  47.4609566  37.9274154  59.3688393
  40.9856224  21.5271497  66.6203117  40.8766794  20.8641982  67.3021173
  41.4045286  22.2630858  67.0665741   5.4505533  16.6816139  34.2402697
   4.7538847  17.2385049  34.5877719   5.2059871  15.7961380  34.5092511
  69.9951410  71.5690422   1.5244466  69.4526148  70.7849360   1.4403331
  69.6439886  72.0221615   2.2910006  67.6841116  -0.1551085  17.7503479
  67.6395655   0.3687961  16.9504905  68.2970858   0.3182367  18.3128762
  39.5566154  12.7800179  24.8422074  39.8925495  12.2767425  25.5838919
  39.8005557  13.6849558  25.0366664  12.5687873  33.8448238   2.7842966
  11.6175246  33.9332795   2.8435162  12.7038622  33.0342221   2.2934690
  61.2910557   6.3760835  42.7472210  62.2188425   6.1457056  42.7959156
  60.8309460   5.5525124  42.9092693  65.5274010  38.0096459   9.9930555
  66.1377811  37.3025656  10.2021194  64.7929335  37.8770709  10.5923986
  70.8791065  49.7875071  29.8520184  70.5198431  49.0760803  30.3821445
  70.7718945  49.4905519  28.9483833  22.7494884  77.3753166  67.4297810
  23.3138180  76.6057158  67.5037813  22.6153755  77.4843454  66.4883137
  68.0170345  32.7296495  44.0254736  67.6403141  33.6071301  44.0913630
  67.8082609  32.3158598  44.8629856  67.3837519  66.6779327   4.9889627
  67.6205969  65.8850241   4.5078927  67.0037317  67.2553015   4.3267980
   2.6574865  73.8130808  33.4792233   2.5798750  72.9652405  33.0417609
   2.3644875  74.4477177  32.8252935  31.9309855   9.1695136  18.6585081
  31.7809367   8.6313277  17.8812861  32.4292350   8.6041874  19.2487502
  21.1209369  43.7349272  41.6763544  21.1409736  44.4234085  42.3410511
  22.0409870  43.5122967  41.5343046  46.4261103  12.2901452   3.8179848
  45.5099058  12.4886906   3.6246443  46.9208860  12.9623985   3.3494714
  72.3771620  68.0737019  22.9423785  72.1210432  67.4257231  23.5986996
  72.5401688  67.5611115  22.1506023  10.6024027  42.3480463  37.4455690
  11.1024201  41.7298698  37.9785514  11.2137127  42.6248741  36.7630005
  58.6825132  21.6923952  54.0863037  58.4058714  21.2981677  54.9135160
  58.7580919  20.9536338  53.4823561  43.2402468  22.2614789  64.7801447
  42.9178953  22.7274275  64.0086412  42.5328827  21.6584468  65.0086546
  51.2790918  76.5781498  26.7892861  50.4470968  76.1994982  26.5053034
  51.9014454  75.8525133  26.7407942  22.8555536  15.7838309  42.1041727
  22.9651785  16.6892660  42.3946905  23.6959410  15.3674698  42.2955513
  56.1673212  44.6304798  64.6712828  56.1242580  44.9796867  65.5614662
  56.8890524  45.1074123  64.2615604  21.9098544  74.3884611  64.5575333
  22.1240973  75.2917528  64.3243170  21.2235570  74.4684649  65.2199745
  61.8659353  39.3795347  38.4379792  60.9995747  39.7687769  38.3190608
  61.8271160  38.9678860  39.3012691  30.7397199  30.6020761  59.1152000
  31.1056852  31.4821124  59.2037392  30.2101851  30.6418943  58.3188105
  14.3647695  65.6930542  23.7059975  14.3660569  66.5043211  23.1979942
  14.7334599  65.0384617  23.1128621  68.6976517  66.9831799   0.1131116
  68.9946879  67.5577234   0.8187304  68.4257592  67.5804828  -0.5836906
  35.7868171  46.6248655   7.0357925  36.2410760  47.3342037   6.5811324
  36.4796305  46.1564493   7.5014448  50.9980726  54.6751499  59.1720104
  51.2148952  55.5837011  59.3811750  51.4000940  54.1650057  59.8751211
  78.4642553  47.1766138   1.8024826  79.2401552  47.4416780   2.2964004
  78.2053137  47.9634523   1.3228251   2.8349641  12.7007926  67.1816349
   1.9479606  12.9649961  66.9373941   3.1585738  12.2170091  66.4217234
  15.2172637   2.3131451  11.9015861  15.4105461   1.8479037  11.0876918
  15.7642066   3.0978227  11.8646169   9.3618357   2.0288697  22.9705286
   8.6378258   2.4358171  23.4463811  10.1383281   2.5073212  23.2610011
   6.0891145  11.8521595  12.8375518   5.9582829  12.7911556  12.7056372
   6.9830972  11.7795265  13.1718445  66.5365887   1.2842084  58.5634661
  66.8619204   1.8967555  57.9037857  65.9495115   1.8084230  59.1082335
  62.3345232  10.8275688  50.9883165  61.6236496  10.2025950  51.1307907
  62.7867508  10.5025458  50.2098036  78.3305073  39.4559979   2.5849527
  77.7803612  39.2742229   1.8230292  78.8319206  40.2331877   2.3383887
  14.0576768  76.6100740  33.9021158  13.5749769  77.2541142  34.4202328
  13.4656465  75.8605099  33.8398099  21.6993666  55.6056070  22.0605683
  21.0173059  55.6382179  21.3897777  22.1988344  54.8150778  21.8560529
  53.2464981  68.4236288  60.7364845  52.5532913  68.4555531  61.3957834
  53.8008928  67.6917505  61.0070944  59.1083860  21.5107894  45.9904528
  58.2899046  21.0274196  45.8778906  59.6901655  20.8959103  46.4373159
  79.0309954  54.3284273  25.4041290  79.8992682  54.0289354  25.1346111
  78.5212088  53.5246515  25.5055952   0.9795517   5.6489211  63.3601570
   1.6955015   5.9626377  62.8076792   0.2650667   6.2652278  63.1991911
  28.1424713  38.9042163  30.0923944  27.4063206  39.5121956  30.0240231
  28.5566497  39.1225147  30.9272814  64.1526747  76.1863565   0.1165402
  64.0191555  77.1120071   0.3204335  63.6448908  75.7192850   0.7800399
  19.1191685  69.9135160  30.0324726  19.6877766  69.7168541  29.2879963
  19.3509841  70.8083200  30.2811027  56.5285349  24.8715711  52.5896263
  56.1213923  25.2542806  51.8124533  56.3985920  23.9286542  52.4883699
  42.1597385  19.5360327  49.9802399  41.2132692  19.5530689  50.1221609
  42.2588015  19.3351758  49.0496063  68.5587740  42.4909163  44.0883732
  68.7302589  41.6108084  44.4233942  67.8271961  42.3778677  43.4815454
  13.3428419  44.3849516  50.0662613  13.9944959  43.9062738  50.5785561
  12.9451847  43.7204266  49.5036650  23.3571959  55.9176159   4.2871681
  23.7001061  56.3518858   5.0682276  23.9569354  56.1752987   3.5870653
  56.3326645  72.4683905  26.6702056  56.6309452  73.3617592  26.8409562
  55.5830240  72.3505449  27.2536278  29.5651507  65.8931589  11.8450820
  28.7641048  66.3209343  12.1476805  29.5400238  65.0252151  12.2479117
   0.9411024  75.8888340  10.3352869   0.6727901  75.1619196   9.7732979
   0.3948808  75.8018637  11.1165106  46.4916706  53.8082170  49.0445852
  45.8052683  53.6601734  49.6951008  47.2436857  54.1097498  49.5542765
  78.7918663  54.5028400  20.1267672  78.0731297  54.4239807  19.4995248
  79.5709991  54.6244907  19.5841944  14.2833555  45.7034540   9.1126412
  13.9661455  45.5975199  10.0095177  15.1115692  45.2239561   9.0933073
  66.4473915  50.6819916  42.8012419  65.6499958  50.9342957  43.2667875
  66.1343956  50.2314663  42.0168400  10.1823771   1.8251723   4.7319102
  10.9363866   1.6928531   5.3065348  10.4742491   2.4837743   4.1016039
  62.0343924   8.4386325  58.1478786  61.1480570   8.7806475  58.2647753
  62.2169638   7.9642284  58.9589548   9.0960360  67.3092890  13.1807113
   8.7790221  67.8629255  13.8943088   9.3136460  66.4775038  13.6014390
  47.5683546  29.1695333  62.9417658  48.1150532  29.2382812  62.1590614
  47.8310251  29.9136806  63.4835052  71.4518642  27.4756336  63.5831118
  70.6206608  27.9445767  63.6568117  71.6113520  27.1313334  64.4618940
  19.0217602  48.7883329  38.9113450  18.8937521  48.6712551  39.8526955
  18.7782907  47.9449034  38.5297942  58.5421133  49.4984102  52.9582357
  57.9965067  49.3423223  52.1874046  59.3789911  49.7975445  52.6027298
   1.2131066  64.5755816  18.4388876   0.4794151  65.1634550  18.6187005
   0.9443105  64.0883493  17.6600492  45.5373621  22.4145961  66.1996603
  44.6654415  22.5423455  65.8259439  46.0670662  22.0965886  65.4685545
  68.8317108  59.5501804   4.0524963  68.3577347  59.9148273   4.7998968
  69.3199396  60.2912617   3.6938033   5.2964664  57.4268627   7.7787811
   6.0239148  58.0487967   7.7945602   5.6525534  56.6316795   8.1751686
  57.8846836  73.7571526  43.8394928  58.1631470  73.1171751  44.4945621
  56.9386721  73.8319969  43.9647675  10.4150760  62.6659393  17.0156431
   9.7718751  63.3096600  16.7187464  10.2305353  61.8848324  16.4940596
   1.4491479  33.5889173   9.7818315   1.2433335  33.9294982   8.9112705
   2.1665458  34.1416264  10.0918067  73.9434668  31.8159486  67.3028199
  74.5994064  31.9295455  66.6150181  73.1324133  31.6259958  66.8312896
  34.4633770   7.8594810  27.4958110  34.3754053   8.5039175  28.1980896
  34.5119572   8.3824325  26.6955638   9.9772131  61.4200497   3.1592116
  10.5743420  62.1483088   3.3304134  10.5516922  60.6681442   3.0148318
  47.7355003  44.3579149  60.9483147  46.9281673  44.4380045  61.4562845
  48.4119558  44.1763067  61.6007376   0.7557578  29.4600892   5.0274169
   0.1274796  29.5571876   4.3118259   1.4527598  28.9152718   4.6619126
  14.8462129  49.8802280  51.1826897  13.9311481  49.6082830  51.2529325
  14.9945807  50.4238749  51.9564247   6.1677402  24.7590494  35.8475304
   5.2767760  25.0992298  35.7657290   6.6677767  25.2353716  35.1847219
  57.3109579  57.7491093  57.6327896  56.7024326  57.0177746  57.5275421
  57.1345139  58.3173132  56.8829584  67.5630808  22.1914411  43.4014034
  67.3799372  22.9522395  42.8501558  68.5179615  22.1252060  43.4086418
  22.3865223  14.0744615  63.0010700  22.4586940  13.1217802  62.9425859
  23.2032919  14.3514979  63.4162474  43.6200666  77.2094202  47.8490543
  43.5959387  77.6766157  48.6841440  43.3240747  77.8533983  47.2056913
  38.0487227   1.7311582  65.6848335  38.7617493   1.3522127  65.1708031
  37.3324776   1.1016661  65.6013775  64.7011042  76.1028337  13.2146454
  63.7571430  76.1620283  13.0674314  65.0732946  75.9899473  12.3400247
  59.8228359  27.5610757  63.7884998  59.7863340  28.3421540  63.2363987
  58.9917278  27.1145320  63.6269569  53.5370064  10.6947744  11.9743562
  53.6333132  10.4278886  11.0601735  54.4305658  10.8742440  12.2668815
  76.6782093  74.4295740  16.5582848  76.5262175  75.2152348  16.0330510
  75.8776808  73.9147902  16.4564025  66.8625546  72.1204758   7.8862637
  67.1187496  72.4498558   8.7477207  67.4678755  71.3987780   7.7160579
  57.0546770  56.8362713   7.3975867  57.6752758  57.1170235   6.7250758
  56.2212610  56.7522860   6.9343460  66.1233854   9.4278198  57.3413038
  66.1928701  10.2738178  57.7836752  65.5450439   8.9110106  57.9022551
  13.8546991  67.2931242  21.3918424  13.2882309  68.0579853  21.4934897
  14.4211090  67.5112391  20.6516814  54.6975517  11.8433726  59.4206524
  54.4029427  11.4536524  58.5975170  53.9820671  12.4237132  59.6804905
   2.3077588  60.0374222  27.9402351   1.5100813  60.0895834  27.4137163
   2.8149477  59.3326139  27.5374484  21.4247346   1.2789963   3.9736021
  20.9890413   1.6797148   3.2213870  20.7102323   0.9289773   4.5057720
  68.4099150  73.1033134  15.6467104  67.8524780  72.3926640  15.3297341
  68.9082813  73.3782625  14.8771226  51.3315916   8.8400877  58.8321352
  51.0359764   9.7080135  59.1069984  52.2869062   8.9000076  58.8362694
  56.1859846  55.0124598  12.0096493  55.4830408  54.9319553  11.3649631
  56.7831612  55.6590223  11.6333854  23.1355929  60.5610847  11.9992852
  23.5458994  60.6577778  11.1399066  23.6278272  61.1533880  12.5677168
  36.1158586  24.3427610  55.8673191  36.1359286  23.4085131  56.0747099
  36.9001102  24.4874930  55.3379488  30.4235053  58.7237787   2.5701141
  31.2870312  58.3539343   2.7538815  30.3746200  59.5039845   3.1224889
  11.7427766  63.0429840   0.8524338  12.1937394  62.2203255   0.6624357
  10.9985971  63.0527496   0.2504929  32.0771813  13.1701148  39.6388435
  31.4833403  13.6173022  39.0358448  32.2408295  13.8095427  40.3320837
  56.6594458  43.3816481  59.6915007  57.2436762  44.1291428  59.8186350
  56.4855576  43.3709288  58.7502909  49.4513941  11.7385542  54.5443058
  48.6956930  12.2526336  54.8286867  50.1345110  11.9436431  55.1826763
  73.5474110  40.5943966  38.8510680  74.0550232  40.6913471  39.6567726
  72.7691507  40.1040506  39.1158462  10.2541423   6.3364136  38.0110598
   9.4298345   6.1970329  37.5448823  10.8619571   6.6407049  37.3371172
  64.4611549  43.4288836  12.0003045  64.3701220  42.5815535  12.4361706
  64.1863489  44.0674448  12.6582932  18.2697415  27.1987796  39.6719384
  17.4422050  26.7997336  39.4032836  18.4405637  26.8343568  40.5404139
  39.2141652  17.7213335   5.1196080  39.8612785  17.8291190   4.4225729
  38.4040856  18.0735815   4.7509259  20.7566953  38.7012577  43.7597036
  20.6006503  39.5984507  43.4648705  20.9895110  38.2244253  42.9630470
  35.2985191  12.2482681  29.0699148  34.6794820  12.9746020  28.9960051
  36.0940146  12.5672364  28.6436796   5.4326558  21.7939138   8.1853193
   5.4421538  22.5757170   8.7375224   6.1537951  21.9265127   7.5700086
  70.8691502  37.5058413  62.3848915  70.2936411  37.1594858  63.0668449
  70.2786970  37.9484248  61.7752028  16.1847639  33.2096291  26.5667224
  15.9807050  34.1395307  26.4673471  15.6754637  32.7780175  25.8807516
  38.6884880  13.0405712  52.6080084  38.1528997  12.3039770  52.3133802
  38.2622838  13.8115060  52.2335243  51.0798359  29.6255589  62.2512484
  50.2667809  29.9473095  61.8618298  50.8730078  29.5133090  63.1790686
  53.9457273  21.9966459  64.4965553  53.6067295  21.5158129  63.7414932
  54.5902252  21.4062548  64.8867989  60.7499218  21.1819363  30.9141803
  60.7452154  20.3709149  31.4225674  61.6130352  21.2004495  30.5007482
  69.6366358  53.6592197   2.6492974  69.4551897  52.8774834   2.1275751
  69.1696692  53.5119629   3.4717846   8.9177465  60.3482819  28.5697603
   8.7272829  61.1711025  29.0202355   8.6218905  60.4932022  27.6710391
  49.9860191  59.1436291  53.2050037  50.3617144  58.7624979  53.9986181
  50.5686808  59.8720217  52.9900980  45.3734827  58.7449455   9.5879418
  44.5948553  59.1215849   9.1779274  45.0584030  57.9469681  10.0124216
  76.6173649  29.1465449  56.9171429  76.6383553  28.2818627  57.3271656
  77.2257853  29.6725607  57.4361467  75.5136633  32.0304823  65.0720787
  75.0190544  32.2077322  64.2719698  76.2702847  31.5229869  64.7784615
  67.1398067   5.0389940  59.2629910  66.9706583   4.7899500  58.3543634
  66.2699795   5.1397943  59.6496010  46.9511557  66.3729048  32.7762699
  46.8508863  65.7954121  33.5330248  46.1664391  66.2173748  32.2506595
  19.5628047  73.1379747  58.4379339  20.4020762  72.9445648  58.0202675
  19.3451142  72.3396444  58.9190912  45.8303738   2.9315886  57.5876093
  45.2302790   2.8325921  56.8484783  45.2652168   3.1575680  58.3263683
  31.1424446  49.4246292   1.7339352  30.4545617  48.7842703   1.9155732
  30.7757735  49.9817896   1.0473821  31.4182186  29.4202685  43.8908434
  31.6717577  28.6789465  44.4407463  32.1308684  29.5032525  43.2572269
  40.3937054   6.9418907  60.4619026  39.6125293   6.5106791  60.1154089
  40.3035164   6.8732148  61.4123631  49.2657089  46.2967062  65.6692553
  48.5642338  46.7377710  65.1900625  49.8117495  47.0083523  66.0033703
  55.0545645  36.6627240  55.3071308  55.1292229  35.7108259  55.2396917
  54.8518658  36.9507337  54.4170761   6.9300461  69.7923613  23.4170651
   6.6121763  70.1553631  24.2437577   6.4705783  70.2932787  22.7431202
  81.9406509  48.7060976  14.2678034  81.7864132  48.5184431  13.3419359
  81.5206146  49.5537710  14.4135880  61.2009716   4.4860658  21.8595243
  60.4392433   4.0054211  21.5355182  61.3743448   4.1073319  22.7213430
  64.0315104  47.6000071  61.4418507  64.0098810  47.8527021  62.3648405
  63.3419275  48.1237459  61.0339165   1.0247836  68.8533545  13.0614614
   1.1963719  67.9998255  12.6636147   0.5668343  69.3470001  12.3811495
   8.9205807  18.7189388  22.1738386   8.5267967  18.8031161  23.0422163
   9.8092639  18.4061885  22.3431373  23.0038762  51.7051268  42.9523039
  23.3223915  51.1221266  42.2631788  22.7871370  51.1210060  43.6789799
  57.1426439   5.8837652  67.3786688  56.5468788   5.9907287  66.6371489
  56.7581367   5.1750588  67.8945398  68.5523939  13.6844015  61.0005426
  67.6800394  13.9552391  60.7144070  69.1395521  14.3495262  60.6412554
   6.6082406  38.4439945  24.8564959   5.7282877  38.4941673  25.2298546
   6.5167242  38.8114285  23.9773798  79.0580273  65.3661871   5.3149867
  79.7648954  65.0843477   4.7343537  78.8883066  64.6064663   5.8719879
  42.5334883  30.9979820  62.0250463  42.0397949  30.3895330  62.5748539
  42.3313475  31.8623614  62.3831224  44.8390055   6.2176001  36.3566709
  44.9911690   7.0172364  35.8530235  45.6271839   5.6927836  36.2167501
  43.4616232  35.5811000  62.3653746  43.0748463  34.8159933  62.7911091
  43.3869743  35.3974104  61.4289379  80.9587383  53.9764404  14.4334006
  81.2883854  54.5789957  15.1001108  80.0514126  54.2472982  14.2933476
  34.2273664  10.1405680  43.7965870  35.0012779   9.6684426  43.4893608
  34.2585039  10.0570261  44.7496271  10.4786706  24.2541504  41.6105604
  11.1559153  23.7065005  41.2135077  10.9639990  24.9110532  42.1097279
  31.7981553  20.0528550  66.5746689  32.5189781  19.4433105  66.4162350
  31.6180706  20.4388189  65.7174444  20.7829738  41.0234642  15.1395941
  21.6534233  41.4183235  15.0882685  20.3511643  41.4879417  15.8565533
  53.5710144  11.2506652  56.5846777  53.4240198  11.4942014  55.6707239
  53.2883501  10.3376937  56.6377115  46.0683107  12.8932118  11.3932049
  45.8184862  13.3700752  10.6017375  46.8037271  13.3908808  11.7505872
  65.4637384  42.1829128  45.8781147  64.5261288  42.1470261  46.0674000
  65.6121302  41.4626408  45.2654028  49.9901438   5.0256789   5.3637189
  49.7336102   4.1940349   5.7622057  49.4726944   5.0758582   4.5600015
  20.7431269  11.1735463  28.6292005  21.6294384  10.8882606  28.8512182
  20.2455282  11.0616159  29.4391990  16.7509735  60.8084249   5.0193161
  16.8711174  61.3720131   5.7836235  15.8702731  60.4482031   5.1234198
  72.3176479  49.6612120  18.3677995  71.5130424  49.2206860  18.0943370
  72.9461527  49.4649792  17.6730287   4.3979624  71.9814444   3.9827266
   3.9239696  72.1704865   3.1728953   5.1808637  72.5301600   3.9356786
  54.9743795   1.7788717   2.1499023  54.7710752   2.4919946   2.7551755
  55.3545475   2.2136508   1.3865739  54.4224072  11.4688969  14.9668574
  53.5185862  11.4087081  14.6574795  54.4352484  10.9502721  15.7712793
  32.7291512  26.5224457  57.5112104  32.3705721  25.9464192  58.1863737
  32.0061493  27.1085858  57.2877359  54.1101837  39.2772937  60.6919384
  54.6705294  38.9328885  59.9965048  53.9833307  38.5373950  61.2858152
  68.7851667  60.6849861  18.0787575  69.0858984  60.9149790  17.1996129
  68.2148170  59.9277544  17.9463339  47.7829266  13.2096887  58.8824987
  47.8739548  12.2973323  58.6076307  46.9053364  13.2592463  59.2614555
  54.6051168  36.7755342  61.8953371  55.4647446  36.8014097  62.3155832
  54.5558119  35.9032154  61.5043640  73.4357548  44.2589140   4.7707802
  74.1244411  44.3837976   4.1178280  72.6312828  44.5219517   4.3237078
  12.6796937  29.9909043  63.9172316  12.6912200  30.8638740  63.5247707
  13.4456718  29.5518994  63.5473871  71.7385006  19.8593163  29.3389678
  72.6539040  19.6092868  29.2134571  71.3721180  19.1619205  29.8826909
  69.6520281   1.0375077  52.9464293  68.9081049   0.4363591  52.9843140
  69.3225145   1.7963009  52.4648857  20.4340816  13.7517858  32.7791882
  20.7817340  14.2475998  33.5204959  19.9468637  14.3970394  32.2668433
  82.3536777  64.9612284  62.2509718  81.9349957  65.8217621  62.2304106
  81.7414665  64.3859863  61.7921448  67.5798607  19.9696219  40.6988811
  67.7188301  20.0489569  39.7551489  67.3718977  19.0450299  40.8334589
  17.3516726  39.0673971  52.1027231  17.8151608  38.5965896  52.7953625
  16.8750155  39.7594428  52.5610971  78.7464809  73.0271339   6.8001056
  79.3255854  72.2814131   6.6427004  78.7345266  73.1242990   7.7522862
  38.0180693  74.3261766  54.8476696  38.8757253  74.7512150  54.8482895
  38.2049561  73.4099817  54.6429825  38.3234191   2.2230665   4.0332595
  38.1913018   1.5283433   4.6783459  38.6398458   1.7681652   3.2527655
  17.3545313  66.3508415   3.7858707  16.5743053  65.9158707   4.1297898
  18.0831230  65.9365845   4.2482299   1.6031423  66.9470930  63.9871311
   1.7088924  66.5723944  63.1126881   1.2190799  66.2401724  64.5057774
  68.6746359  43.5068989  46.5347242  68.9237690  43.1353712  45.6884766
  67.9895830  42.9230070  46.8603039  33.6612248   1.5051709  59.5352268
  33.2677650   1.9750035  58.7999153  32.9836535   0.8904888  59.8168182
  82.0976925  40.4298687  48.8229942  81.9699860  40.9751892  49.5992327
  82.2484016  41.0545683  48.1135798  76.6928577  10.7345784  53.9633369
  76.7716217  10.3863549  54.8514652  76.6770077   9.9590355  53.4025240
  49.5020342  24.3186092  49.5601416  50.0074577  23.6436224  50.0131035
  49.4061470  23.9872718  48.6672544  71.1591339  39.0745378   4.6672046
  71.2770319  38.8322186   5.5856895  71.3182497  40.0181866   4.6461308
  26.1270380  22.8703213  17.7349067  26.9978595  23.0221915  17.3677051
  25.6227756  22.5002480  17.0103383  28.3490300  13.8062394  32.1822858
  29.2476630  13.4968770  32.0683336  28.0885839  14.1109502  31.3130617
  47.9927254   5.7943475  64.8179865  48.1512308   5.0073957  65.3393459
  48.3439922   5.5833280  63.9529371  79.0309095  46.4407396  21.6344047
  78.9131212  47.3408270  21.3307667  79.6196318  46.5163946  22.3853469
  80.8858109  52.9660702  39.8481011  80.5120659  53.3307076  40.6503391
  81.3803291  52.2005129  40.1406813  81.8379498  61.7839146  62.4600315
  81.6722393  62.3124647  61.6793871  80.9954929  61.7559099  62.9135847
  26.1896658  69.3246460  16.7955542  27.0765471  69.6051979  16.5698075
  25.9409261  69.8851681  17.5305176  64.3219709   0.3610126  51.0016918
  63.6982727   0.3112611  51.7260981  63.8041258   0.6764011  50.2610159
  50.1161337  15.0821269  25.4145956  49.4857073  15.7839072  25.5767655
  50.8635759  15.5207920  25.0082278  41.4726639  16.1399317  14.7183526
  41.1516047  16.0417414  15.6147408  41.0260534  15.4504085  14.2271006
   0.2026429  26.3997054  13.1656837   0.1422753  25.9610605  12.3170507
   0.4988160  25.7169652  13.7676656   9.0406549  37.1478677  33.2641339
   9.6060807  36.4547753  33.6049438   9.3494010  37.9435825  33.6974287
  12.6116931   4.5443314   9.3833899  12.0429087   5.2882361   9.5816863
  12.6552999   4.5243186   8.4273934  66.5073347  49.9474478  31.6727829
  66.1972046  49.0871906  31.9556499  66.1285210  50.5583572  32.3048615
   1.9985533  40.1954603  44.7191715   2.2183113  40.0843573  45.6441545
   2.8162122  40.4806185  44.3113089  26.8818831  68.1119919  10.9963655
  27.0397353  67.3227453  11.5144467  27.6410770  68.6684322  11.1702180
  61.3162804  18.8601375  13.6826718  61.2589502  18.4264684  14.5340693
  61.9388533  18.3298743  13.1852210  14.7357655  48.2160378  29.9354219
  14.7426879  49.1488934  30.1498127  13.8962424  48.0772543  29.4970489
  65.0469303  52.2043610  48.8976002  65.1145363  51.4008331  48.3818388
  64.4286203  52.7497721  48.4113455  48.9597225  40.2740479  47.5141382
  48.0145550  40.1249981  47.4883032  49.3094063  39.7150230  46.8202782
   6.7785388  41.6078329  59.4157553   7.2079891  40.8998823  58.9355421
   5.8758670  41.3091564  59.5262432   0.7395741  72.3013163   6.4918447
   1.2584437  72.9368258   5.9987581   0.2521086  71.8199062   5.8233756
   9.4187450  15.5859733   4.7377697   9.7534305  15.0958395   5.4887599
   8.9099991  16.2986803   5.1243669  37.9717827  20.2968144  54.0192604
  37.7632952  21.0921264  53.5291147  37.2334099  20.1838875  54.6178341
  21.3444448  48.5518169   1.1522511  20.7057667  47.9367256   1.5127864
  21.3924932  49.2545557   1.8003884  63.8768625  57.5147820  32.8061104
  63.8008213  56.6710806  33.2517767  64.7871637  57.5492144  32.5121832
  48.7416601  65.6657839  54.4816780  48.7879944  66.3648701  53.8294792
  48.6650229  66.1237907  55.3186893  18.0595016  17.9868019  60.7794380
  17.8832126  17.6425660  61.6550255  18.3471572  17.2251511  60.2760744
  76.5798140  36.9030428  57.9875422  76.9348717  36.2462807  57.3885202
  77.0390129  36.7475820  58.8128901  45.4426384  32.8133512  53.4272814
  46.0809803  32.7555060  54.1381979  44.8034811  33.4578514  53.7311411
  60.5489779  77.3229694  19.7946775  60.6099224  76.4062309  20.0632048
  61.3507557  77.7244663  20.1296258  80.6290436  71.5394878  10.2088392
  80.1382828  71.7894268  10.9917307  80.4075241  70.6185102  10.0711524
  28.9958644  71.9192553  24.5623589  28.0456758  72.0318079  24.5889497
  29.2120218  71.5093184  25.3998899  75.5633211  30.6932712  51.9076490
  74.9620104  30.5861092  52.6446533  76.4078617  30.8879852  52.3139381
  72.3641586  28.3829689  42.6363993  72.9990673  28.6581731  43.2977533
  72.0587015  27.5277281  42.9388714   7.3614371  17.5236571  20.2729106
   7.9915977  17.0552039  19.7254789   7.8513992  17.7475154  21.0641479
  78.6852980  61.4800787   4.2122737  78.7650824  60.6018877   4.5846221
  78.6084032  61.3343620   3.2693604  31.5341926  33.5324836  57.9743719
  32.4703860  33.4593892  57.7888155  31.1081147  33.3194304  57.1441317
   5.3771418  69.6693230  34.2437172   5.1991618  69.3063354  33.3760786
   5.6019253  70.5850172  34.0787482  20.4188228  57.8830624  15.2321339
  20.1104641  58.7775898  15.0873196  19.9100113  57.5726271  15.9811139
  53.8809395  26.8972039  49.1158152  52.9567432  27.1435571  49.0784025
  54.2093086  27.0642805  48.2323599  63.5136223  10.5775762  57.3677778
  64.3516397  10.1439297  57.2068119  62.9343033   9.8761916  57.6655722
  45.7050991  73.0544758  25.8589268  45.4322147  73.8352299  26.3407826
  45.6568480  73.3121395  24.9383211  54.8578262  63.3697605  50.8014965
  54.6828794  63.4828615  51.7357492  54.8340321  62.4224520  50.6663275
  61.0843563  43.4729481  45.5755186  60.4610682  44.0348721  46.0359335
  60.5701590  42.7092695  45.3135300  10.7916677   9.2708981  21.8989110
  11.2555420   9.5765078  22.6784348   9.8690802   9.2704576  22.1539879
  42.9320812  35.1261783  67.2340679  42.6289606  34.2602181  67.5069523
  43.7176800  34.9525261  66.7155075  21.8391967  35.7119465  60.2655172
  22.5742388  35.7498431  59.6535444  21.1206055  35.3401613  59.7540188
  19.8692286  14.6523786   3.0859989  20.4332423  15.3370190   3.4457049
  20.1199055  14.5954394   2.1639621  62.9446268  19.9640584   1.6225594
  63.7560177  19.9421751   1.1152177  63.2239771  19.8237073   2.5272670
  36.7828012  46.4947462  53.6315250  36.6446686  47.4419212  53.6348534
  36.4883327  46.2067175  54.4955635  27.4677348  52.8805733  20.8620572
  27.4169469  51.9332743  20.7344699  26.7740321  53.2347202  20.3056502
  65.5138350  60.2525759  44.2027617  65.4022837  59.5432281  44.8357010
  64.8546839  60.0796461  43.5305643  73.2851076  65.5319834  18.0273819
  73.8461065  66.0032463  17.4114084  73.8561964  64.8659563  18.4101295
   3.0548719  49.4617462  63.0159903   3.8410842  49.6368599  63.5331297
   2.3541313  49.9153948  63.4843874  52.2786856  40.3288364  44.4725990
  52.6726341  40.1696157  45.3303146  51.7023325  41.0806847  44.6095943
  34.5057249  13.9830601  19.9125504  33.7256360  14.3664491  19.5116711
  34.1788721  13.2224715  20.3930759  20.1636362   3.2243881  28.2138634
  19.7226238   3.5794011  28.9856839  20.7682204   2.5697571  28.5633898
  68.8469601  69.7571850  48.3772135  68.7926817  69.4007826  47.4905014
  69.7857475  69.8176908  48.5539818  39.4741440  76.8840075  50.9803057
  38.5429144  77.0803499  51.0827541  39.5431209  75.9472752  51.1647081
  26.3547683   4.9784616  42.7237082  26.8829226   5.7266843  42.4454117
  25.4548502   5.2301145  42.5162268  53.4089565  13.9221168  56.7998362
  53.0050993  14.0607584  55.9431505  53.3348417  12.9796576  56.9498682
  29.2552209  70.9976578  26.9419742  30.1726246  71.1330652  27.1791840
  28.9670563  70.2765417  27.5016022  14.2461860  46.3714552   6.3720804
  14.1437006  46.2645769   7.3177582  14.3324268  45.4785728   6.0380864
  74.1606474  54.9740601  32.9081249  73.9541483  54.6513271  32.0309520
  73.4493685  54.6453094  33.4578872   1.1181055  76.2909746   6.3106358
   1.4186159  75.3822899   6.2959254   1.8049726  76.7778015   5.8551735
  68.1553507  36.4653945  47.3059082  68.4768867  36.7916632  48.1463814
  68.9475918  36.2896729  46.7982626  54.3659830  56.1747313  54.1291428
  54.6552753  55.2650309  54.1997480  54.7575378  56.6100407  54.8863888
  46.3050938  77.5488567  16.4363778  46.2502146  78.3388567  15.8986783
  45.6544495  76.9567251  16.0591877  22.6869130   4.4605953  22.4664140
  21.7733836   4.6297988  22.6967716  22.9905319   3.8412911  23.1301212
   6.4348280  72.5423431  56.0054588   6.0073566  72.0829105  55.2826691
   5.9233546  73.3438921  56.1156511  10.4306936  68.3059645  42.0793152
   9.5097208  68.0797672  41.9494057  10.8939159  67.8289080  41.3907814
  52.3116684  46.1600494  47.6313066  53.0972242  46.1311150  48.1774664
  52.6212788  45.9339619  46.7542315  50.2213383  40.2916098  58.2977486
  51.0141182  40.8042717  58.4555817  50.4241323  39.4235015  58.6463118
  42.0857096  39.2960858  62.9173326  42.0195675  40.2025986  62.6171780
  42.9571009  39.0145087  62.6387167  58.6401415   5.3467178  12.2215927
  58.4083939   5.4981357  11.3052964  58.9062548   6.2068176  12.5466228
  54.3697405  43.4632444  12.4282265  53.5210752  43.1259966  12.1414161
  54.8408079  43.6485243  11.6158235  44.8774862  50.0506973  42.8587627
  44.1829157  50.3754997  42.2857809  44.6205473  50.3399277  43.7342978
  59.1655159  60.6912804   6.6087747  59.1534138  61.5174437   6.1255175
  59.5660448  60.0662088   6.0045457  71.4518118  45.1733780  51.0731840
  70.6564951  45.3826380  50.5833721  71.2450314  45.4089117  51.9776154
  11.2862158  68.8613272  30.8628130  11.9954228  68.8069439  30.2222657
  10.6799328  68.1656361  30.6085181  64.0290737   1.7637786  32.2946119
  63.8605595   2.6560351  31.9917703  64.0605307   1.2408634  31.4934874
   3.9326069  75.0294399  12.8623998   4.6798995  75.0199890  12.2643232
   3.6020371  75.9266758  12.8185058  51.4520359  28.0709934  48.2270575
  51.3659239  28.6007738  47.4345016  50.6728601  28.2814550  48.7416649
  15.1921511  39.7457004  25.7136536  14.8107457  40.5982256  25.9233284
  15.4648829  39.3907094  26.5597224  38.1104851  26.6280174  60.7291603
  37.6427722  26.5627265  59.8965645  37.4762154  27.0187998  61.3301754
  23.3820462  25.3263426  15.7353806  23.8655925  26.1034775  16.0155237
  24.0087724  24.6085882  15.8263373  36.9064283   6.4864087  13.5655689
  37.1769738   6.0883033  14.3929434  37.2986507   7.3594362  13.5802937
  13.8179576  77.1252298  31.1334682  13.9186609  76.7542648  32.0100975
  13.9728272  76.3884449  30.5423689  53.6623669  74.8006582  52.6761293
  53.6274147  75.7512712  52.5696182  53.6542416  74.4590092  51.7820120
  23.7951159  14.5890355   8.3645815  23.5483432  13.8866425   8.9662278
  24.7105885  14.7736204   8.5745114  60.2516651  39.8860574  53.0575848
  59.3292236  39.7826576  53.2913446  60.5903912  40.5171061  53.6926222
  58.7550735  34.8676348  61.9653177  58.6301279  35.8164597  61.9466972
  58.5438108  34.5807505  61.0768938  81.2322903  43.9002705  48.1260538
  81.5658092  44.7934389  48.0409431  81.7648125  43.3868504  47.5185537
  39.5125937  12.9771125  10.8331096  38.9609003  12.2478819  11.1161089
  39.3206739  13.0747449   9.9004430  46.5308762  15.9982193  31.6248298
  45.9189177  15.9615755  30.8897161  46.8872929  16.8861127  31.5957379
   9.8491627   7.4694270  14.1227579   9.0218669   7.4580747  13.6414218
   9.9878567   6.5585458  14.3821621  36.6834378  12.2857618  61.4336729
  37.0234203  11.6615212  62.0747423  36.9789934  13.1393039  61.7504406
  76.6301775  32.9520392  43.6552334  76.8699312  32.5585961  42.8162146
  77.2159529  32.5389075  44.2896032  59.2910147  61.4520168  64.8432159
  59.5055008  61.5214109  63.9129400  58.3362722  61.5132141  64.8740959
   6.1671865  69.5426512   4.9533802   6.5265244  69.8775291   5.7749414
   5.4796940  70.1666880   4.7206551  11.7382717  68.3748817   4.4552150
  12.4059951  67.7395248   4.1969544  11.0367095  68.2588768   3.8144451
  10.6856763  67.1402931  17.1455228  10.3300023  67.8230286  17.7143836
  11.0152447  66.4738512  17.7484107  49.6133089  14.7470367  51.9032431
  49.3093967  15.0642872  51.0528183  50.5326557  15.0106299  51.9426155
   6.3524598  47.9843760  53.2640457   5.6125098  48.4975052  52.9393816
   6.8833637  48.6127949  53.7533951  82.2578543  65.1484203  55.7724047
  82.1719319  64.1995859  55.6798601  82.4612649  65.2813196  56.6982508
  27.8217721   1.0018171  40.8700418  27.8279114   1.9579710  40.8257294
  27.4936819   0.8048107  41.7474127  47.5032473  48.0355453  55.9773493
  47.4624920  48.8552284  55.4847097  48.1913805  48.1803703  56.6267586
  65.0149250  40.7624245  55.7974863  65.8276558  40.3685665  56.1146259
  64.4021749  40.6672382  56.5266705  76.0363483  55.8230162  30.3545380
  75.0907373  55.6753445  30.3388476  76.2236547  56.0801983  31.2573147
  40.3982830   2.6937667  32.5307798  40.1741934   3.5528347  32.1729851
  41.3382864   2.6062828  32.3727608   8.3633226  26.0466123   9.0540433
   8.3874166  25.4713082   9.8186845   7.4345356  26.1104894   8.8315421
  63.4875154  36.5925646  46.6062355  63.7686586  36.8800545  47.4748802
  63.8823271  35.7269549  46.5010071   4.7770146  19.5753765  21.9707894
   5.0787616  19.0857530  22.7359343   5.2098715  20.4259062  22.0447159
  81.9198227  57.1535492  15.0827956  82.0663548  56.6694975  14.2701113
  81.6727352  58.0328989  14.7965860  58.8334417  45.0624847  61.0364771
  58.9048290  44.1102171  61.1021757  58.2737923  45.3120136  61.7718410
  59.0211582   1.5682322  25.7030749  58.9068127   1.8582258  26.6080952
  58.1591797   1.6847466  25.3035116  53.6104774  45.7725334  64.2226648
  54.2307997  45.0753212  64.4355726  53.9710188  46.1819649  63.4361506
  65.2425337  17.4683738  65.7305908  65.4227734  18.2260633  66.2870550
  65.1347876  16.7411911  66.3436365  54.7854424  63.4742832  57.7206326
  54.4954491  63.5003805  58.6324739  54.1430616  62.9173613  57.2808456
  80.2948761  76.2631607  67.4124813  81.2450027  76.2334013  67.3002529
  80.0006676  76.9268227  66.7886019  58.0530643  66.4977074  27.2194862
  57.9095840  67.3175240  26.7466855  58.2353926  65.8547544  26.5342093
   6.3593072  75.4311800  62.4164295   6.9445151  74.6743345  62.4471283
   6.1555845  75.6137848  63.3336973  77.4848938  62.4879646  44.7802734
  78.3379126  62.0614862  44.8621893  77.4368906  63.0745173  45.5351830
   5.9157705  14.9304461  12.6879275   5.3183895  14.7417283  11.9642186
   5.6389880  15.7885003  13.0094326   3.5275164  69.9055624   7.2989452
   4.0728897  70.4844952   7.8315216   2.8125998  69.6477032   7.8808683
  69.2939949  29.3012238  64.3447781  68.5730219  29.9131441  64.4930410
  69.8215914  29.3551159  65.1416302  76.9672441  36.4581609  24.1470838
  76.2807369  36.5003371  23.4813809  76.5154028  36.1666155  24.9389648
  64.5298576  65.5578089  59.9122524  65.1687479  65.2378416  60.5491781
  64.5580912  64.9167871  59.2019558  46.7642689  52.4091864   6.8637365
  46.7198658  51.4686394   7.0358747  46.4574194  52.8157473   7.6741582
  51.6312742   7.4739975  52.5493526  50.8700895   8.0214453  52.3566580
  51.4200878   7.0552963  53.3838129  72.1647406  42.9782248   9.1140735
  72.9971504  43.1865501   8.6899012  71.5601635  43.6495876   8.7978518
   1.5744779  19.3596673   4.8614496   1.2934326  19.0510607   5.7228476
   0.9600449  20.0613666   4.6462247  15.2474177   5.6719869  17.8161073
  15.1939094   6.3162231  17.1101832  16.0004187   5.9500408  18.3375537
  34.3875551  18.4101009   7.6309234  34.1912055  19.3432927   7.5482720
  33.5461378  18.0062008   7.8433245  58.0970716  28.4942889  60.4188681
  58.4904718  27.6669192  60.6962299  57.1840334  28.4312487  60.6992579
  28.3711672  60.1261377  17.2157550  28.6704421  59.2258644  17.0885766
  29.1289043  60.5806971  17.5837791  17.1954441  58.1290817  30.6121421
  18.0667639  57.7388430  30.6810355  17.3492312  58.9920568  30.2276158
  32.9155087  61.6354895  51.9474268  33.4487247  61.7460489  51.1602211
  33.3889580  60.9867811  52.4682474  46.6872358  58.3366728  61.9392967
  46.4278221  59.2007923  62.2590399  46.4642859  57.7400398  62.6538277
  30.7612157  23.7333465  50.2486801  31.3495278  23.5871148  49.5079136
  29.8915029  23.5223508  49.9091053  68.0068827  14.0061891  18.9561188
  68.8500214  13.5789967  18.8049400  67.7665949  13.7531686  19.8474514
   9.4920737   0.6338207  60.2767658  10.1374984   1.2565735  60.6111908
   8.8113505   0.6100385  60.9492874  64.3717575  68.8057756   1.8105267
  63.5218382  68.9004374   1.3805203  64.4281483  69.5592976   2.3981085
  80.0227833  36.6934705  32.1863699  79.3516588  37.3751187  32.2207260
  79.7258520  36.0332298  32.8125834  75.7961512  60.5966711   2.0806988
  75.3708029  61.3961887   2.3906721  76.6229248  60.8963203   1.7026983
  55.8980989   4.8603901  21.8553472  55.2805901   4.1563165  21.6573787
  56.0374308   4.7981116  22.8003025  79.1502476  34.8572588  53.1709671
  79.9819708  35.3202367  53.2715559  78.4864664  35.5004621  53.4198046
  60.7602215  51.6011190  52.4996805  60.2369118  52.3811436  52.3154497
  61.3904572  51.5601397  51.7804098  76.5381765  41.0373974  53.6900949
  76.3665819  40.5438137  54.4920683  77.2925472  41.5865469  53.9036179
  60.5745125  50.3055143  19.6982515  59.9306822  50.1712942  20.3937364
  60.4801178  51.2275600  19.4591749  58.5798740  59.2228079  66.8060064
  59.2627716  59.6117687  66.2595701  57.8087330  59.7679663  66.6498947
   4.2798597  52.7125311   8.5259217   4.1113678  52.2242308   9.3317795
   3.7242198  52.2913933   7.8700715  45.9733868  73.2801485  20.2501082
  46.2604952  72.4259043  19.9275124  46.3112593  73.9045382  19.6080732
  30.6497383   0.5084226  31.8874383  31.0955453   1.3394770  32.0512557
  30.0062466   0.4387411  32.5926304  17.1834838  76.5852165   7.8445053
  16.6861904  75.7778406   7.7138382  17.7158761  76.4154768   8.6216658
  39.9896932  24.6402574  39.5931244  39.9793768  23.7203813  39.8576117
  40.3712940  25.1001954  40.3408337  11.1327982  10.3109097  53.4697342
  10.6746840   9.8266274  52.7828312  10.6762052  11.1509311  53.5157728
  32.6559019  21.0173106   6.8264705  33.4604788  21.1673117   6.3300961
  32.5932884  21.7701149   7.4143445  56.6832781  11.7593288  19.6956778
  57.5687075  11.4006078  19.7554064  56.5708876  12.2559667  20.5062032
  58.2406998  19.0295660  53.1880140  59.0747833  18.5810113  53.3270597
  57.6933527  18.3842039  52.7406359  36.3847613  77.6123857  55.7491589
  36.2463975  76.9825268  55.0417900  37.0706034  77.2194290  56.2890053
   9.8312008  14.4739509  20.0285435  10.7156622  14.3313193  20.3656149
   9.2881340  14.5642483  20.8115888  66.5222931  71.5233564   0.1368768
  66.7447186  72.2415590   0.7292832  66.5927076  71.9043207  -0.7384181
  25.5289006  18.5723102  41.0408354  24.7067809  18.5814393  40.5506659
  25.2916479  18.2232749  41.8999767  40.9866571  18.1280315   2.9205608
  40.2627659  18.3772612   2.3460187  41.4810753  18.9377058   3.0478802
  60.5806303  51.8494081  55.4976797  60.8596802  51.5764284  54.6236944
  61.1823130  51.4012098  56.0920906  23.7793207   5.4284984  26.0965371
  24.6972680   5.4205906  26.3677239  23.3229804   5.8763415  26.8088722
  12.7819335  38.8610697   3.3227029  13.4561336  38.1845856   3.3863872
  12.0449519  38.4251928   2.8947970  72.6528835  26.9096446  66.1692095
  73.5171366  27.1140194  65.8120918  72.5703382  27.4766898  66.9359398
  65.8304596  52.6183939  59.9552917  65.0835180  52.1343327  59.6031666
  65.5366135  53.5291004  59.9777508  26.1565280  73.4486341  21.3868356
  26.0795856  72.5084543  21.5492511  25.6261826  73.6007595  20.6046438
  59.7306633  40.4747915  63.5839939  60.2475405  39.6990871  63.3663893
  59.7241211  40.4975462  64.5409012  71.0015297  49.1561270   5.3060085
  70.8930206  50.0753212   5.5500311  70.2172661  48.9490509   4.7977960
  46.2607527  53.8325167  43.1061554  45.7694054  53.5986042  42.3186970
  47.1789312  53.7699747  42.8429604  40.3414726  17.4944866  62.3392248
  40.0601673  16.9838989  61.5800142  41.2755299  17.3031354  62.4237967
  53.6067390  58.6134863  37.6118708  53.0824089  59.3257904  37.2459102
  54.2923021  58.4620142  36.9612622   5.3330874  38.6079192  39.7179008
   5.0770563  38.6494088  38.7965107   6.1541253  39.0981245  39.7606468
  63.3810806  28.1167173  66.1561728  63.0091763  28.9967179  66.2154579
  64.2649317  28.2057047  66.5127134  15.1237440   5.5921435   9.3210644
  15.0423932   5.8046746  10.2508187  14.2890084   5.1817012   9.0952671
  70.6693745  56.9836044  60.4615974  70.3573275  56.8703985  59.5637941
  71.5419197  56.5900469  60.4633093  46.3589907   3.8684002  52.0366478
  46.0491991   2.9677492  51.9413137  45.8342028   4.2277390  52.7519846
  47.0845509   8.1912506   0.9051331  47.6330280   8.7976766   1.4027825
  46.5650797   7.7380657   1.5692148  20.5203533  37.3287964  50.6503105
  19.7531354  36.7866540  50.4667568  21.1217499  37.1449232  49.9286842
  73.2505139  67.6096055  67.0631470  73.4879502  68.5303972  67.1726892
  73.9025505  67.2650883  66.4529064  77.4154902  75.1477528   5.7919091
  77.1126842  75.3015614   6.6868281  77.8916740  74.3187571   5.8393317
  77.7575588  22.0043731  59.6494961  77.9751968  21.3441777  60.3075314
  77.1558475  21.5588427  59.0531111  54.2904902  37.6464105  48.0694580
  55.0360870  37.3201537  47.5655985  54.5384645  38.5379744  48.3141088
  80.7195473  18.3447361  51.7905760  81.1561203  18.8338375  52.4880075
  80.7443237  17.4342358  52.0848656  54.2506456   9.4406003   1.4499170
  53.7002277   8.9370930   0.8501254  53.6607456   9.6958810   2.1591967
  24.6368194  69.6381044  19.0360999  24.9244618  68.7689590  19.3155241
  24.0200496  69.9155378  19.7134900   3.0446073  46.6793871   6.6056740
   3.4531656  46.4827251   7.4486661   2.2624111  46.1280823   6.5841913
  77.6274395  51.3828182   9.1480440  78.1082153  52.0370388   9.6550810
  78.2148314  50.6278515   9.1130430  10.8389616  64.6255875   2.9312873
  11.2978113  64.1035461   2.2731367  11.2885177  65.4706049   2.9227868
  73.0028486  50.4398060   7.6012629  73.8548183  50.8596325   7.7201277
  72.3675156  51.1373377   7.7626079   2.8852448  36.4271927  64.3682432
   2.0361498  36.2292027  63.9731884   2.8677651  35.9760118  65.2122593
  44.7696400  13.2577312  15.1409590  45.4820490  13.0357111  14.5414472
  44.1185951  12.5694084  15.0046360  39.2928767   6.3359559  33.0755329
  39.2672110   5.6454146  32.4131680  39.8157263   7.0313489  32.6764226
  69.8182201  33.3169270  25.4657602  69.5332718  34.2286062  25.5280232
  69.8171139  33.0033445  26.3701367   1.6944200  48.5893869  37.9407430
   1.3973486  47.6809692  37.9932904   0.8906369  49.0985775  37.8364015
  72.2554350  46.1622810  27.7269268  71.6207695  46.1398983  27.0107365
  71.7491627  45.9227657  28.5031676  14.0605223  53.3019352   1.0856304
  13.1732678  53.6610842   1.0806023  14.6106768  54.0182829   0.7687545
  57.8802061  66.0988283   8.0087930  57.9324341  66.0504532   8.9633423
  57.2308064  66.7811680   7.8387272  27.9305959  27.0719099  21.2562871
  27.6994729  26.1730337  21.0221171  28.8253832  27.1807981  20.9342146
  52.0233727  68.4004116  23.3937740  51.8456507  68.9185572  24.1787386
  52.5231552  67.6483345  23.7112999  37.2189689  32.7819610  24.3198657
  38.1339908  32.5015211  24.3020344  36.7261958  31.9804478  24.4958925
  71.5437651  21.2219596  34.7944069  71.9973755  20.4645085  35.1641893
  71.4388514  21.0090947  33.8670921  18.9372110  42.0884514  16.9123316
  18.3216190  42.5680447  17.4666512  18.5575211  42.1370888  16.0350049
   9.7708935   2.1384974  34.6812725  10.2529716   2.9651654  34.6600127
   9.3562448   2.1251555  35.5438972   7.2885627  72.7045298  34.8904324
   7.3574787  72.4493551  35.8104181   6.7774689  73.5137463  34.9039650
   1.2379082  61.5540934  51.0468674   1.4442855  62.4763823  51.1985922
   1.7969547  61.3012838  50.3121614  73.9522552  14.7691190  38.4059048
  73.3970547  14.0597713  38.7296510  74.8460388  14.4523907  38.5365534
  44.6871090  37.0082784  64.0437889  44.9936533  37.7858329  63.5772371
  44.0643072  36.5986657  63.4433174  64.8356771  23.8396692  43.8872147
  64.7411966  23.3336091  43.0802393  65.5583572  24.4415712  43.7092447
  24.0708303  11.2418222  20.6440139  24.5893383  12.0463717  20.6530905
  24.4637513  10.6959581  21.3250995  80.3314400  60.0350857  57.3659849
  80.9919930  59.4165325  57.0540762  80.1914120  59.7943974  58.2817888
  47.0456505   1.1376455  28.8212824  47.6843119   1.4757118  28.1935453
  46.3419676   1.7865379  28.8200307  39.5499825  15.7058728  64.2113400
  38.7430310  16.0293174  64.6118975  39.7431850  16.3372755  63.5183525
  71.1631346  75.7673454  32.8433895  70.6031704  76.5322781  32.9758573
  70.8622122  75.3905344  32.0165348  31.3343787  10.9938920  13.1561577
  31.3260746  10.9715283  14.1130602  31.2223315  11.9189560  12.9372191
  48.4169483  25.0301409  14.4649601  47.5215197  24.7153401  14.3411124
  48.7245989  25.2310538  13.5810947  30.1035404  12.9061270   0.1074077
  30.9921432  13.2213867   0.2724231  29.6838760  12.9115033   0.9676892
  62.3109818  19.5999742   8.6708736  61.8949604  19.3451238   9.4944078
  63.2235241  19.7684848   8.9056200  25.9484243  42.8181458  17.2717917
  25.5702114  42.2115183  16.6352451  26.7590928  43.1203651  16.8622673
  43.3756638  60.3748178  62.0113468  43.0073261  60.3237772  61.1293316
  42.8619289  61.0552645  62.4464417  24.6063757  39.4462371  17.8738379
  25.3172565  39.8365903  18.3822715  24.7864008  39.7073841  16.9707179
  31.5412879  32.7094936  62.8746319  31.8248057  33.6194348  62.7859926
  32.2548628  32.2812772  63.3475733  42.9127455  17.7316821  39.4260597
  42.6220608  17.1646369  38.7117815  42.7783251  17.2090423  40.2166367
   2.0723930  38.1455326  11.3791072   1.9345100  39.0833306  11.2458527
   1.2211717  37.7494240  11.1926913   5.8207601  33.8604164  23.0323792
   6.0588664  33.6414957  22.1314859   4.8807284  34.0370822  22.9954791
  45.8917952  68.2162333  37.3613572  46.6406536  67.7175283  37.6880646
  45.1316357  67.6763010  37.5778413   8.1448257  25.9642911  44.7442293
   8.3637148  25.0369191  44.6531296   8.5744333  26.3860154  44.0000391
  13.1848311  50.5072403  64.9617815  12.2903299  50.4529381  64.6254015
  13.0811048  50.5489397  65.9124279   3.2602894  55.7639980  30.3784275
   4.1234326  56.1748934  30.3296208   2.6514122  56.4536905  30.1141906
  48.8485861   1.8407653  26.9729733  49.5513391   1.4209576  27.4690843
  48.8063526   1.3478194  26.1535501  45.3947306  44.1741753   8.9285755
  45.2932549  44.4801521   8.0272925  46.3300419  44.2676449   9.1093737
  78.3071232  39.5058990  59.2661190  79.1641283  39.1295290  59.4664240
  77.6844740  38.9404154  59.7230339  42.9674673  17.2846818  12.1263885
  42.2424221  17.5465906  11.5589917  42.5661612  17.1622097  12.9867268
  81.3452148  22.2654819  59.7231913  81.8295383  23.0804706  59.5910788
  81.4465237  22.0751500  60.6557941   6.1690748  56.9717741  45.3869581
   6.4866883  56.5665245  44.5800352   6.4966279  56.4044857  46.0849047
  67.3707056  29.7150826   0.6278519  66.5191984  30.0150347   0.9459660
  67.9745674  30.4213428   0.8576005  30.3666997  57.6692581  39.3686390
  30.4539061  57.1382284  40.1602411  29.4757175  57.4990606  39.0630031
   2.3779812  58.1203461  66.0954618   2.5829285  57.2460651  65.7640076
   2.1176904  58.6159182  65.3190041  23.3079624   9.3414694  35.8716321
  23.7791014   9.7911763  35.1701880  22.4116492   9.6713102  35.8079100
  65.8873415   3.5693982  17.2846270  65.3936100   2.7494216  17.2945666
  66.7307377   3.3364519  16.8964934  32.3553491   7.4896449   5.2077800
  32.8672385   6.8090475   5.6448025  31.4457226   7.2752953   5.4148209
  56.8695021  44.2460060  18.6587644  56.9150305  44.4686842  19.5885873
  57.4051476  43.4571552  18.5748887  56.0295820  23.3073139   8.1328243
  56.0738182  24.1769052   8.5304242  56.0900784  22.7025008   8.8722664
  13.4504199  35.1484346  56.5370226  13.5325110  34.3866897  57.1108150
  13.7660599  35.8814740  57.0654726  68.3446836  34.6620774  49.7174072
  69.0722656  34.4583797  50.3050804  67.8282833  35.3132319  50.1923323
  76.4450169  54.7842264   6.3350123  76.3417530  53.8338232   6.2870371
  75.8211231  55.0593328   7.0068020   8.5701412  75.7531309  45.6219959
   9.1104633  75.9659815  44.8610878   8.8429201  76.3796806  46.2922621
   2.9788032  45.5342865  45.8469534   2.8612125  46.1229277  45.1013613
   3.9246258  45.3954363  45.8956480  81.7072487   7.6579398  56.1070967
  80.7749939   7.5204128  55.9390879  81.7424679   8.4714025  56.6103601
  33.1710744  15.6905413   2.9665342  34.0141630  15.9602809   3.3307767
  32.8178334  15.0760221   3.6098221   7.0382851   6.0929161  52.6834965
   6.5105671   6.7258239  52.1964884   7.8946817   6.1162311  52.2565603
   0.4629081  53.0428791  43.2019997   0.7022500  52.2936153  43.7474871
   0.9209390  52.8930616  42.3749638  75.5138636  73.9165258  54.9005556
  75.3499413  74.6177053  55.5311966  75.9664249  74.3474722  54.1755009
   3.3798203  27.7309370  61.6930866   2.7665839  27.0179772  61.8715858
   3.6505604  27.5924015  60.7854843  67.9766941  56.6689062  65.8162737
  67.4109077  57.3965788  65.5581808  68.7724018  56.7886686  65.2978706
  23.0069828  11.8069887   9.8637003  23.8784552  11.5577340   9.5560658
  22.8820586  11.2999201  10.6658888  81.6273689  38.0003572  51.4278173
  81.2865257  38.8307977  51.0955095  81.6538525  37.4282527  50.6608582
  25.5678487   1.1296916  42.6644182  25.3605247   0.2072749  42.8140736
  25.3715587   1.5575714  43.4978580  73.0130672  71.7424631  47.5949001
  73.5578012  71.5014458  48.3441734  73.3590174  71.2218761  46.8699598
  76.7718649  44.0038681  46.5661335  77.3314714  43.5293055  47.1808386
  77.3302460  44.7018433  46.2236834  18.3231688   9.1492772  27.2152257
  18.5402179  10.0806916  27.2550941  17.4040592   9.1060245  27.4790406
  33.4446621  72.3946333  30.8238053  32.5186205  72.2176456  30.6584120
  33.8724971  71.5441322  30.7246089  45.6144714  15.1295090  51.4565182
  45.0419712  14.4201386  51.7485332  46.2012053  15.2839434  52.1968699
  21.6154504  15.9072804  46.6299725  22.5573778  15.7878399  46.7513752
  21.4743686  15.7630515  45.6942749  70.8290100   1.6032183  63.4211683
  69.9634123   2.0047058  63.4971905  71.2812376   2.1317014  62.7635813
  51.5993683  33.8895657  -0.1392545  51.7991344  33.4722045   0.6986771
  52.4557106  34.0756609  -0.5243243  48.3988190  66.9184446  56.9700241
  47.5125837  67.2273159  56.7818260  48.9610958  67.6661730  56.7675924
  53.0521345  56.6495895  60.2175665  53.6145353  56.1845446  60.8369780
  53.0577803  57.5566292  60.5233097  35.1570725   0.7102851  22.5648928
  34.7105789   1.4440939  22.1425200  35.9597850   0.5937414  22.0566583
  20.0849390  43.8261509  13.7034714  19.3860328  43.2243156  13.9595056
  20.0484133  43.8426447  12.7471101  18.5975266  34.7289801   5.5813479
  18.0515850  35.5151916   5.5743337  18.0940473  34.0922904   6.0886616
  23.7328529  58.6495924  60.6238556  24.2073798  58.7998533  59.8062515
  24.0514064  59.3320894  61.2145805  80.2763176  47.2060585  37.5225735
  80.8869267  47.8791332  37.8231716  80.4194641  47.1577168  36.5773702
  67.3333025  67.6890564  66.6457939  67.6281929  66.8409634  66.9774723
  68.1387711  68.1914091  66.5229368   7.7406424  26.4824009   3.5126358
   7.9167902  26.2775087   2.5943643   8.5830492  26.7779303   3.8579547
  33.4720922  34.5000100  22.2207928  33.3608747  33.6395097  21.8165636
  34.3870115  34.7265553  22.0539641  72.5197124  62.9742813  56.9999838
  72.0962048  62.5444603  56.2569332  72.2412014  63.8880157  56.9387150
  61.6659403  75.3806782   9.2396349  61.3634205  74.5002413   9.0170693
  60.8754015  75.9196758   9.2120618  47.7364731  41.1310387  58.9264774
  48.6564922  40.8787489  58.8480759  47.7493382  42.0881414  58.9217567
  44.2198610  26.7482996   3.3700299  45.1611805  26.9203544   3.3465797
  44.1384220  25.8275008   3.1215689  67.4367809  51.6279030  29.8254514
  67.0199347  51.2119484  30.5800724  66.7709351  52.2238493  29.4823265
  25.6266165  56.7758608  21.2452364  24.7969675  57.2515249  21.2045193
  25.8889174  56.8300438  22.1641994  77.5009823  56.9691277  50.3266907
  77.1713686  57.7377748  50.7922792  78.1844854  56.6181803  50.8975554
  34.4810486  11.4814198  12.1666837  34.5557857  11.5887022  13.1149125
  33.9370108  10.7016742  12.0560050  77.7227116  23.1968427   8.7885278
  77.5733566  22.7493095   7.9556769  76.8839455  23.6108637   8.9917380
  27.8054261  18.6803603   5.4060781  27.1846986  18.0578530   5.0273770
  27.2552776  19.3501115   5.8122790  55.4210997  15.3393662   8.2728565
  55.2287912  14.4800997   8.6482352  54.7189236  15.9042609   8.5954589
  70.8116961  47.3439407  57.2175026  70.3856039  47.4387026  58.0693817
  70.2594137  46.7240667  56.7410898  42.6685381  24.4827366  17.7024198
  42.6771116  24.9886584  16.8898928  43.4613609  24.7566891  18.1635225
  62.3066759  13.2848060  20.3264999  62.8581047  14.0424621  20.5217361
  62.3870611  12.7247560  21.0985851  78.8960648  20.3149176  21.6829419
  79.0760612  19.4063067  21.4415717  78.3957672  20.2519917  22.4965572
  27.9017353  13.3939493  10.3073776  27.8946805  13.3001471   9.3548107
  28.1882358  14.2948925  10.4572129   0.5340425  22.2792530  13.4676695
   1.1380473  22.9775906  13.7201309   1.0958724  21.5997005  13.0951309
   5.5862665  50.0899029  49.9203157   6.3330781  50.3115082  50.4765511
   4.8613387  50.6032610  50.2769327  79.1661930  44.9039412  45.7452726
  79.6226358  44.3678904  45.0967884  79.8553181  45.1973963  46.3412809
  72.1383524  64.2689753  54.5953512  71.2186766  64.0129995  54.6654081
  72.5298119  63.6033678  54.0297031  77.9914379  50.4054976  65.1296234
  78.8336086  49.9507713  65.1150417  78.1700182  51.2534475  64.7230244
  33.6840582  11.7208040  21.1883903  34.1751218  10.9956408  20.8020949
  33.0373073  11.2980235  21.7533684  25.6922531  11.6720545  65.3484631
  25.1719713  11.2247503  66.0158873  25.2359414  11.4896905  64.5270300
  77.4111938  42.1369982  58.7748051  77.8391361  41.2965298  58.9382267
  76.4978504  41.9106102  58.5993481  79.0835571  37.5423670  45.7472324
  79.8969603  37.5621343  46.2514353  78.9883137  36.6275764  45.4820538
  59.2824221  72.0794725  36.5409255  59.5986128  71.5685797  37.2860718
  60.0739145  72.3055458  36.0523963  81.4120960  43.9259768  10.0222039
  80.9855938  44.7828817  10.0156212  81.7791080  43.8478661  10.9027910
  53.0274773  27.8498602   6.6029185  53.2903910  27.3495889   5.8303672
  53.0619955  27.2176623   7.3208082  41.9301653  39.6471095  66.0480165
  42.3164797  38.7762237  65.9555578  42.0643568  40.0604296  65.1951408
   4.7610340  57.7225971  50.3867388   5.3867811  58.3538294  50.0314665
   4.8041263  57.8500700  51.3344336  18.6964834  29.7017860  60.6408501
  17.9907346  29.0738487  60.4864264  19.4130719  29.1746163  60.9941530
  10.4359865  11.1562252  61.8924999  10.8315480  11.9462419  62.2607851
  10.2353597  11.3890767  60.9859896  39.0925097  32.6311970   7.0322603
  38.6760139  32.7233982   6.1753696  40.0196648  32.8029895   6.8676460
  24.4111991  59.5497322  57.9137230  23.7692595  58.8591528  57.7486658
  23.9530945  60.3604889  57.6922512  79.1309357  25.2312446  66.6125965
  79.0714407  26.1696815  66.4336300  78.3823013  25.0477171  67.1801281
  67.7709293  37.6675081  24.4789028  67.7397299  38.4826684  23.9781332
  66.8567801  37.4846172  24.6959615  35.6789398  41.9289684   6.7382383
  34.7548628  41.7848015   6.9420284  36.1268950  41.8365192   7.5790846
  43.9819908   7.8019285   6.8663210  44.1204548   7.7933395   7.8134137
  43.5298538   8.6286229   6.6978538  71.0378695  76.5949965  64.8994064
  70.8012199  77.1564150  65.6376743  71.9029903  76.9043636  64.6309185
  24.7913599  65.3298950   7.0361048  24.2793155  65.2139091   7.8364730
  24.1584301  65.6436634   6.3902074   8.4448129  45.0879049   6.9277477
   7.7601743  45.6781149   7.2426337   9.0869284  45.0657701   7.6372755
  42.5486326  41.3622618  61.2091875  42.7921104  41.9897175  61.8898106
  43.2698298  41.3985825  60.5808687  23.4668660  28.0773282  45.7371521
  22.8527951  28.0149794  45.0055361  24.3291616  28.1162763  45.3234386
  61.0081720  33.5692286  54.4026899  61.7654085  34.1355038  54.2538261
  60.3098202  33.9601946  53.8776350  29.1373491  69.2774534  14.0060532
  29.6301246  69.9527407  14.4722998  29.3233848  69.4406176  13.0813920
  47.0166588  35.4719973  16.0467815  46.1809635  35.9104991  15.8868957
  46.7808962  34.5581841  16.2067580  52.8179026  20.1395464  36.5546298
  52.5664043  19.7229946  35.7303333  52.8538227  21.0738516  36.3496542
  48.0047131  29.6416426  15.4155326  48.3705997  28.9402413  14.8766482
  47.3872423  29.1990328  15.9978187  35.5332708   9.7621399   2.6858899
  34.6855140   9.4643044   3.0157918  36.1137176   9.0101820   2.8036726
  51.2310505  25.5159855  11.0851383  50.3931761  25.3802133  11.5275931
  51.7111588  24.6999216  11.2257385  66.9839764  26.5613604  33.9037395
  67.0621920  25.6843352  33.5283184  66.2374878  26.9510221  33.4485960
   9.6927029  54.3228292  42.3032141  10.2563417  54.4254684  41.5363979
   9.7266966  53.3870983  42.5019264  13.9037561  20.9106207  19.8707640
  13.2235014  20.5728817  20.4533601  13.6738312  20.5648351  19.0083265
   5.5959338  62.6679945  18.3175027   5.0782609  63.4631681  18.1912279
   6.0457784  62.8049374  19.1512406  12.9668975  46.0514259  57.6595831
  13.5696721  46.2881660  56.9547081  12.5073504  45.2782202  57.3321629
  23.8473964  11.6084492   4.3042204  23.4466004  12.3650873   4.7321165
  23.1908083  10.9158707   4.3781015  22.5475025   6.7069995  38.6384535
  22.8818798   7.4057961  39.2006874  21.7257690   7.0526129  38.2898331
  41.9357109  60.3999329  59.7416639  41.9697142  60.8597422  58.9028263
  41.3006544  59.6970987  59.6039724   6.2547910  44.3561172  42.4480486
   6.7409194  44.5488548  41.6463232   6.8751693  44.5380735  43.1539202
   4.8255777  30.2910399  38.3368444   4.0924621  30.3093600  38.9520192
   5.1965272  31.1723852  38.3799934  45.6881428  46.5140963  57.7495575
  46.3434219  47.1056557  57.3795605  45.1124334  46.3043165  57.0141792
  45.9983540  19.0514696  52.7798605  45.4404354  18.4190512  52.3270845
  45.6011486  19.9011576  52.5888395  30.0028372  29.3315196   0.8504734
  29.3803477  28.7921119   1.3380975  30.6330729  29.6243024   1.5087366
  47.2982883  62.4889469  17.5501716  47.0373917  62.9650497  18.3385170
  47.8876019  61.8047142  17.8676176  49.4867229  31.6385698   3.8057557
  49.3538618  32.4606776   4.2776850  49.9225044  31.0671544   4.4380611
  57.5423301  48.6964481   0.1161729  56.8181361  49.3181180   0.1889907
  58.2533205  49.2020403  -0.2776565  47.0184755  20.2848434   5.7435721
  47.5289059  20.2912927   4.9338517  47.6285601  20.5928850   6.4137495
  10.7326126  16.9924319  16.3838494   9.9815375  16.7674780  15.8347452
  11.1038423  17.7735293  15.9735966  79.6002817  47.5100708  51.2484121
  80.1646233  47.4356365  50.4788637  79.6121883  48.4423971  51.4648819
  43.9719152  58.6146498  65.5322838  43.1802273  59.1492128  65.4714155
  44.6907806  59.2399025  65.4399729  59.1788864  56.3341331  50.1186466
  58.5768652  56.6648149  50.7853174  59.0460205  56.9127321  49.3677759
  53.0306339  64.1755629  63.2406998  53.1119967  63.3283758  63.6787415
  53.9187908  64.5324993  63.2426739  81.1413288  56.8212223  33.4277129
  81.1215687  55.9328890  33.7836623  81.1170197  56.6995335  32.4785900
  69.3540287  73.4863758  43.3288622  70.2769613  73.6200142  43.1130600
  69.0035152  72.9935074  42.5869370  44.8214340  70.0782394   7.1903265
  44.8327160  70.4810858   6.3220990  44.0364552  70.4321575   7.6083958
  64.4828224  23.1636858  41.3374043  64.6920538  22.2315693  41.2773132
  64.2763472  23.4212208  40.4389191  15.9643388  62.6495123  10.9064496
  15.2781129  61.9956398  11.0397804  15.7122374  63.1003857  10.1006031
  73.7690163  70.5031633  50.3133249  73.8116264  69.5829725  50.0532007
  73.1527376  70.5167627  51.0456181  23.2737803  47.8512669  10.8209467
  23.3012843  46.9406796  11.1147344  24.1511989  48.1880808  11.0023987
  81.5619946  58.7592983  64.4369698  82.1539497  59.2566729  63.8726616
  81.1836338  59.4142389  65.0235891  28.9224148  24.6929836  66.5797949
  28.3167219  24.8548555  65.8564949  28.4037733  24.8561502  67.3675871
  61.2814426  23.0496693  12.5204432  61.6489172  23.9139104  12.3352826
  60.8100796  22.8136444  11.7214811  25.2477002  52.6298857  51.1550665
  24.7270823  51.9421387  50.7401085  25.1239777  52.4904203  52.0939350
  57.7023172  55.4625177   2.9725367  56.9407463  55.9610796   2.6764375
  58.4494114  56.0285044   2.7782565  64.0777397  58.7977600  57.8961277
  64.4661474  58.8995266  58.7650442  63.6833954  57.9256868  57.9106951
   7.6338100  32.0706463  58.1817245   6.7188579  31.8285060  58.3247709
   7.8247660  32.7043986  58.8731909  22.6934862  54.3233347   1.1108391
  23.1585598  55.0776196   1.4727654  21.7726064  54.5844555   1.1165244
  46.8865633  47.8225565  42.6592922  46.9127989  47.3861885  43.5108328
  46.6439629  48.7263393  42.8606701  22.5991917  41.7702961  59.1352081
  22.8551102  40.8509874  59.2101145  21.6445565  41.7595673  59.2043972
  38.9297175  14.2846584  32.5560904  39.1450763  14.7347188  31.7392087
  38.3292913  14.8790884  33.0059505  57.1721220  20.6903505  50.8416462
  57.5119019  19.9335873  51.3192320  57.6636505  20.6956506  50.0203037
  69.8427296  71.1979818  60.3825903  69.6986341  70.7854176  59.5309687
  69.4589758  72.0704079  60.2940893  72.7921828  51.0771570  67.2367288
  73.6176737  51.5615318  67.2232273  72.9866751  50.2596126  66.7784428
  20.4874206   8.2680291  61.7001247  19.9673975   7.4647260  61.6775131
  20.5557346   8.4830219  62.6303625  79.4417906  51.1009359  52.5692511
  78.9156914  50.5101204  53.1081343  79.2529583  50.8360338  51.6690302
  25.7714748  76.9856262  21.9984531  26.6414094  76.6419220  22.2017097
  25.6425405  76.7788935  21.0727811  61.8986082  32.6821327   4.8705339
  61.3505793  33.3183002   5.3300828  61.9886017  31.9546366   5.4860681
  29.7514844  23.2504487  11.9732821  29.6175647  23.2227039  11.0259020
  28.8693094  23.3215642  12.3378956  11.9527137  40.1574421  50.3501701
  12.2782183  40.1557350  49.4500208  12.6210022  40.6308794  50.8456278
  73.3970594  49.9409866  50.4510403  73.2976675  50.6362772  51.1013651
  73.1655788  50.3555489  49.6199036  33.2496667  30.2051306  57.0883703
  33.6291575  31.0835123  57.0626402  34.0019226  29.6221185  57.1905375
  31.3723445   0.8518610  62.3447466  30.7963276   1.4027344  61.8146753
  32.1749473   1.3649872  62.4383497  27.6880598  57.3018026  53.4653950
  27.4531579  56.3772869  53.3858681  27.0858598  57.6460505  54.1250038
  23.3999443  39.3688917   0.0282371  24.2046404  38.8510418   0.0511852
  23.2645106  39.6413732   0.9357850  76.8695593  36.4920545  50.6393957
  76.6679335  37.4258542  50.5794334  76.6732073  36.2624693  51.5476751
  74.0159464  64.1581154  15.0184870  73.1034040  64.4437504  14.9747169
  74.4821119  64.9029636  15.3981209   8.1919539  69.4759607  56.7639875
   7.8187490  68.8936281  56.1022949   8.5519487  68.8862133  57.4264336
  53.0080366  34.2070818  51.6080475  52.1417332  34.5794845  51.4435339
  53.5229301  34.4492006  50.8383083  23.5838771  42.0618773   6.2020975
  22.6330256  42.1719027   6.1992842  23.9135313  42.8145218   5.7110935
  23.9055324  19.3665636  10.6638837  23.4256387  18.5570145  10.8387136
  24.3993664  19.1843653   9.8644072  81.4230251  25.8532596  61.9432306
  80.7502747  25.1767278  62.0203304  81.9188118  25.6100178  61.1614037
  22.3153925  56.4834166  63.2942390  23.0207992  56.3113594  62.6705170
  22.3124623  55.7183933  63.8695288  74.1650963  72.9721355  28.9675808
  74.4636869  73.8697147  29.1139436  74.8403502  72.4263668  29.3705630
  15.1976895   9.4350147   6.6910964  14.2628980   9.6162254   6.7888767
  15.6309187  10.1940799   7.0814347   9.1239309   4.4635913  65.9076166
   8.4405756   4.8131797  66.4794970   9.8074508   4.1636500  66.5068388
  79.5647383  56.2447929  48.4976196  80.2949905  55.9655333  49.0498638
  78.9683867  56.6927385  49.0975714  74.9002934  46.5959930  63.4427452
  73.9557743  46.4799881  63.3395004  75.2273417  45.7215166  63.6538601
  73.4349537  62.1671057  52.9071045  73.5892820  62.7146769  52.1373081
  72.9602861  61.4075470  52.5694752  81.2288094  21.8874669  55.8413601
  80.5717945  22.1448731  55.1945972  80.8167267  22.0678926  56.6862631
  43.0921793  74.3679857  44.0170336  43.1910896  75.2621746  44.3439388
  43.7883329  73.8755894  44.4519472   2.7667347  67.0999336  56.0039377
   2.8561532  66.1471748  55.9819746   3.5420594  67.4238968  55.5455112
  73.2390785  38.7537146  62.3933601  72.3505974  38.3978438  62.3795509
  73.3249569  39.1498923  63.2604790  51.1122227  23.1985140   1.3972451
  50.5893373  23.6033511   2.0892909  51.1929846  23.8789892   0.7289170
  31.1886120  48.4429455  21.9476938  31.0742807  48.1831217  21.0335541
  32.0771408  48.1625462  22.1670580  71.1905241  75.5062485  62.2646999
  71.6260290  74.7691965  62.6928568  71.1549187  76.1867523  62.9369164
  10.1885009  19.9833262  63.7040329   9.7983235  20.7499218  64.1239452
  11.0815215  20.2549458  63.4919739   4.6691778   6.5193772  48.6312342
   4.1687199   6.5731764  47.8170586   4.0303880   6.7102116  49.3180847
   4.2474622   5.4456085   9.1469336   3.2911241   5.4667395   9.1816127
   4.4856483   4.6356288   9.5979685  51.7833662  54.3223810  66.7781067
  52.2050953  55.1721048  66.9059658  52.2702265  53.7254429  67.3463154
  58.7757063  24.4038033  22.4871325  58.8424730  24.0854311  21.5869021
  57.9970026  24.9604487  22.4871850  76.2121677  23.8593340  47.6912498
  75.6294346  24.5874906  47.9067469  76.9906950  24.2766595  47.3225069
  25.5125499  35.1570725  60.5474663  24.9006391  34.4850445  60.2471733
  26.3005280  35.0151372  60.0228930  12.4960017  65.6944561  50.0230932
  12.5792837  66.5299034  49.5633888  13.3851767  65.3404379  50.0395155
  50.4714632  59.2062187  63.2689619  50.0039577  59.1114330  62.4390888
  51.1012793  58.4854221  63.2727432  69.3797827  66.3368177  35.1696324
  69.1808081  66.0500336  36.0609245  70.2663612  66.0148382  35.0067306
  47.5891018  20.2890587  60.7640409  47.7866983  21.2121820  60.6058359
  48.3211279  19.9749815  61.2948227  11.7042303  24.3712974  23.0318522
  11.0565734  24.7151661  23.6470962  11.1857784  24.0403533  22.2984242
   8.5244644  72.1144867  57.7615452   8.4595877  71.1595011  57.7666616
   7.8569287  72.3965549  57.1361923   6.9202209  76.9842482  35.9413171
   7.5848347  77.2854519  35.3218055   6.3625467  76.3991213  35.4286194
  27.5247431  57.2595453  47.5311279  28.2569265  57.8370619  47.3152304
  26.8468380  57.4836969  46.8936110  60.5405521  57.1514130  25.5570102
  60.8965492  56.5285158  24.9233699  61.1988449  57.8444815  25.6073546
  77.8001595  49.2095470  54.0258169  77.2272301  49.7253990  54.5931625
  77.2017050  48.7350273  53.4488297  67.2397852  58.3410406  17.8973603
  66.6175318  57.6946640  18.2308745  67.3336697  58.1264687  16.9692564
  64.8782587  58.3211899  20.3268766  64.7934771  58.0106068  21.2283087
  65.1390648  59.2381382  20.4130054  10.6094813  59.6714640  56.0503864
   9.7728264  59.2445517  55.8660412  11.2661850  58.9979506  55.8733320
  74.2054462  22.1966696  66.1430788  75.0726414  22.0461035  66.5192986
  73.9357901  21.3398504  65.8123589  54.5671654  18.1063151  23.6856675
  53.8259268  18.6148739  23.3567882  55.3366375  18.6244631  23.4497356
  76.3218641  60.4290247  15.1298177  76.8627167  59.9004221  15.7165790
  76.7781734  60.3963137  14.2890191  26.0686374  19.2035091  28.1639004
  25.2726007  19.0405631  28.6698723  26.0313606  18.5693204  27.4479079
  29.0598083  26.1486053  55.1988316  29.0826225  25.3069925  54.7434235
  29.5890856  26.7305017  54.6534014  60.2279043  48.8463402   4.1919383
  60.1623917  48.1657076   4.8617727  59.8162508  49.6137714   4.5892131
  36.1933208  19.5064116  27.7093267  35.7302308  20.2679634  28.0583501
  35.8878636  18.7741911  28.2448483  11.9637537  67.6687813  57.3633242
  12.0617557  66.7280340  57.5103521  11.1202347  67.8865862  57.7598953
  60.5315256  53.5778284  33.2423282  59.5803356  53.6601019  33.1737876
  60.6658649  52.8557110  33.8561130  15.4458022  56.8468714  53.9341593
  15.7506979  56.0094881  53.5847902  15.5221820  56.7523384  54.8836136
  73.8903999  41.5680695  32.1312332  74.5363569  41.2046194  31.5255308
  73.0543518  41.2097311  31.8331528  44.2086077  69.6672201   2.1389189
  43.4098673  70.1755810   1.9981569  44.5031118  69.9211502   3.0135721
  29.3454742  14.7878337  53.4321833  29.7409129  13.9164615  53.4560919
  28.4232044  14.6381056  53.6400986  69.2006397  72.0006704  27.0821190
  68.4384584  71.4513683  27.2653484  69.8542595  71.3946962  26.7331171
  42.2713661  35.4373980   6.9522941  42.7260065  35.4074955   7.7941024
  42.9393101  35.7238865   6.3293898   9.4229853  62.2148228  41.6805887
  10.0261748  62.0512772  40.9555769   9.8297006  62.9267025  42.1745968
  69.0213728  73.5368776   3.6755496  68.2618380  73.8559675   4.1629118
  69.6573973  73.3009148   4.3508470  40.1994705  13.1439650  54.8814058
  39.6773553  12.9890692  54.0942383  41.0428667  12.7317441  54.6943617
  81.7897606  13.5121548  25.8852410  81.9969082  12.7306294  25.3728557
  82.0875645  13.3038664  26.7707705  52.1707487   0.7595614  61.3351631
  52.4524069   0.0540090  61.9174814  52.9659557   1.0169049  60.8686304
   5.0959420  16.7120361   3.8621244   5.8793336  16.7680883   3.3149612
   4.8882464  17.6214087   4.0769166  59.8172951  53.7879944   5.8628947
  59.6764803  53.9416742   6.7971241  60.4798746  53.0979252   5.8308810
  28.9446640  60.4946756  25.2856946  29.3662977  59.9404669  25.9424353
  29.5051503  60.4195786  24.5133972  31.7663479  72.8541422  55.1825619
  31.1397505  73.0951118  55.8648729  31.2993956  73.0119038  54.3620157
  56.1389637  13.1879508  22.0687580  55.2211571  13.4261358  22.1996546
  56.6247940  13.9884925  22.2670794  15.8880138  75.3717279  30.5204129
  16.5731359  75.7118177  31.0958934  16.0862732  74.4389868  30.4372191
  62.1699381  24.8932958   2.7893749  61.6135740  24.2220712   2.3942187
  62.9237747  24.4104910   3.1282827  52.8490400  59.8805141   4.7758776
  52.9479218  58.9298439   4.7240740  53.5513735  60.1627970   5.3617728
  16.0313559  73.3799171  49.0318346  15.5730546  74.2155647  49.1206455
  16.7984724  73.4661388  49.5978165  30.6259322  43.5698843  65.5768061
  31.0776734  44.4039869  65.4486179  31.3290048  42.9361486  65.7193136
  12.3163150  74.2411253  67.3496367  11.6922019  73.6634061  67.7888980
  11.8772004  74.4951699  66.5379274  60.2904367  62.2367382  20.8922482
  60.4828405  62.0269060  19.9783647  60.9795237  62.8501940  21.1473346
  57.1072483  17.6166534  28.0562854  57.0300722  17.6387918  27.1024585
  56.2919855  17.2124255  28.3532286   9.3026459  73.1166363   5.4107589
   9.9697596  73.0948591   6.0968471   9.6209729  72.5041246   4.7476366
  76.1401224  64.6125793  66.7806482  75.5042839  64.8106956  66.0931253
  76.6745901  65.4038191  66.8478298  47.8045845  65.7211924  46.1406898
  48.6036396  66.0797310  45.7544374  47.4969530  65.0786400  45.5013752
   6.5273696  59.7896862   0.9592428   6.4647436  60.1663971   0.0815195
   6.9254255  60.4807234   1.4886287  14.2530978  54.1201687  56.6417170
  15.1133907  54.2658186  56.2481260  13.6420643  54.1684532  55.9065056
   9.7239739  56.0850000  37.5326180   9.3897408  56.8135977  37.0094848
   9.4191545  55.3016853  37.0746493  54.9061108  49.2977667  24.5022345
  54.1082382  49.5720339  24.0501237  55.0111294  48.3763838  24.2650390
   8.2231450  75.6709957  59.0659809   7.5043488  76.1671877  58.6743736
   8.6250776  76.2800741  59.6854162  18.4972012  50.7926655  33.7421012
  18.8654804  50.6785011  34.6182132  17.6426804  51.1969709  33.8923097
  68.1510067   0.2341014  64.2326403  67.5918818  -0.4642832  63.8922405
  68.7386894   0.4454403  63.5072422  17.7238774  56.2154484  50.2328348
  17.1177161  56.0900784  50.9629583  18.5331297  55.7910252  50.5178070
  67.2205210  29.7640800  32.7166390  66.5983486  30.4083562  33.0543375
  67.0767832  28.9866185  33.2561970  26.6166663  56.7463541  66.2444639
  27.1623421  57.0344639  65.5127096  26.4483690  55.8207655  66.0678434
  72.8811121  26.2302518  12.2967005  72.0192957  25.8813596  12.5242424
  73.4550858  25.9288430  13.0009282  12.3260581  54.9673462  55.0060034
  11.6013384  54.3569469  55.1417494  12.0678329  55.4790401  54.2393732
  20.0427246  40.3805304  46.9610119  19.6143496  39.5820308  47.2694397
  20.3364706  40.1678896  46.0751629  80.8912849  67.4250984  62.0989180
  81.4935017  67.5974894  61.3751459  80.0210762  67.5599957  61.7237425
  53.5222340  12.7324831  63.4409571  53.3674431  12.6081526  62.5045729
  54.3343878  12.2566259  63.6147261  78.6575079   6.7028850   0.2874052
  78.2387543   6.2661910  -0.4543322  78.1130457   7.4730897   0.4504207
   4.5345336  56.0640144  13.9092076   5.4534942  55.9330654  14.1428661
   4.0737244  56.0777903  14.7480738   1.6251142  13.5862458   5.2420008
   2.4844266  13.8480079   4.9114046   1.6374633  13.8365960   6.1658001
  79.2510414  39.4067931  10.3765213  79.2446995  40.3400993  10.5889714
  78.6729813  39.3300080   9.6174562  57.4243307  10.5272937  49.9360514
  56.5588713  10.2441859  49.6409845  57.4193287  10.3685641  50.8799887
  59.1020966  33.4797311  46.4118385  59.2611170  32.7820969  47.0476484
  58.5027409  34.0781689  46.8577909  66.5893412  58.7951231  64.2998266
  65.6326866  58.8238192  64.2848206  66.8347263  58.5237932  63.4152937
  32.9930997   9.8551404  25.5416727  32.7436805  10.3843570  26.2992668
  32.5490165  10.2707279  24.8025441  43.1511116   8.8530689  56.6498804
  42.2419310   8.5543656  56.6297770  43.3519268   9.0706152  55.7396173
  58.4034634  34.3625784  14.3447912  58.0907822  33.5226774  14.0085948
  58.0657768  34.4031096  15.2395296  50.6739473   6.7352605  47.2510624
  50.0186539   6.2846488  46.7183638  50.2529049   6.8490624  48.1031179
   8.8009930  74.6615171  56.0342884   8.5444969  74.1958427  56.8302727
   8.7996316  75.5850029  56.2860918  61.8317604  28.5255957  54.3501759
  62.6891518  28.1106615  54.4447422  61.2669802  28.0499053  54.9592495
  72.3695803  35.8542371  21.0481834  71.6808462  36.4832449  20.8331728
  72.3550224  35.2267766  20.3254700  63.4743690  28.5688305  13.0838060
  62.9132318  28.7612486  12.3325872  64.3654823  28.6699104  12.7492440
  32.9126716  57.7687645   2.4697503  33.8365960  57.9011774   2.2574714
  32.8279710  56.8230915   2.5912181  22.1946740  64.6784401  48.3931780
  22.8793859  64.0891171  48.0767918  21.5027761  64.6171474  47.7345753
  43.1799078  61.6257524  24.5045590  43.0509472  60.6834841  24.3962669
  43.7692785  61.8703938  23.7911010  48.1080866  67.9968023   3.9351386
  47.6174593  67.3509502   3.4268108  47.9079342  67.7860165   4.8471373
  55.9998226   2.9439998  47.8027344  55.0993299   3.2235172  47.9677057
  55.9227419   2.2796215  47.1179771  46.6603708  20.6168675  24.8270917
  47.3130322  20.5246735  25.5211854  47.0325136  21.2690735  24.2334890
  67.9840946  22.6754212  49.5896244  68.1730270  23.5163379  49.1732216
  67.4425173  22.8992462  50.3464794  63.7893486  44.1846561  50.5901384
  63.8500786  43.2964611  50.2384996  63.4686947  44.7108459  49.8576498
  16.8030810  57.8572607  38.7260675  16.1346996  57.4095821  38.2073355
  17.6329935  57.5799274  38.3380437   3.9277604  68.3500719  54.0063047
   3.8702971  68.6711884  53.1064081   3.4839195  69.0187073  54.5280027
  27.6172686  65.0302124  62.1193504  27.5467420  64.7529888  63.0328083
  26.9305396  64.5405388  61.6667414  20.4542422  30.5758333  64.7150469
  21.2456131  30.2286577  64.3034267  20.2082086  31.3226151  64.1691399
  45.7390356   3.7085649  43.5875368  46.0883665   4.2200431  44.3173218
  45.1064157   4.2914468  43.1676865  69.9672651  27.0994949  18.0234790
  69.1850519  26.6016984  18.2613277  70.1172066  26.8845582  17.1028531
  80.5021477  24.5611310  37.5896573  80.7735443  24.1377068  36.7752290
  79.5455599  24.5383000  37.5642633  60.3896379  67.4942875  22.2369456
  59.7716761  67.0357180  21.6676688  59.8967075  68.2436848  22.5710869
  15.4798031  16.3734293  42.5686646  15.1298881  17.2210228  42.8432131
  14.7238946  15.7863688  42.5825882  10.6098402   6.1566210  55.3903580
  11.4475214   6.4574414  55.7425356  10.6098211   5.2121824  55.5461407
  48.0161667  32.8587389  60.6025410  47.7254677  32.4755478  59.7749615
  47.3141050  32.6550603  61.2204838  66.5216303  25.2852464  42.3564720
  67.0837498  25.9606647  41.9769144  66.1505985  24.8298812  41.6006899
  35.5007029   0.6317689  66.6138124  36.1026311  -0.0245012  66.9648457
  34.6440291   0.3797638  66.9585371  75.0083828  14.0049970  43.9834261
  75.8482265  13.9356267  44.4373894  75.2412987  14.0680718  43.0571413
  75.2806950  34.7806692  11.9036615  76.0399771  34.3526983  11.5079784
  74.5305729  34.2755389  11.5899920  67.6789331  31.1234784  10.7608330
  67.6138163  31.6237783   9.9473894  68.6099720  30.9160066  10.8405364
   4.3357319  62.8352213  27.6289678   4.3702513  62.3196793  26.8232059
   3.5696241  63.3986712  27.5201678  60.9480047   4.5485175  59.5730782
  61.5947008   3.9968413  59.1329956  60.1728487   3.9925110  59.6519375
  64.7851896  64.5047712  23.1900239  63.9895296  64.5726728  22.6622462
  65.4991245  64.6201468  22.5629544  55.6007147  10.9924924  64.3239117
  56.3058472  11.6012943  64.5438719  55.8592701  10.1678026  64.7353315
  39.9254227   2.4322636  56.2189913  40.3826904   2.8998363  55.5200577
  38.9990234   2.5043947  55.9891796  20.6351805   0.7755398  48.1745481
  21.3010049   0.3588619  48.7216234  19.8033929   0.5214977  48.5743284
   1.6739105  44.2840958  54.3243361   1.9149747  44.3495226  53.4003019
   1.7557210  43.3523607  54.5278168  47.3109674   6.8911266  24.0421605
  47.7943802   7.3710018  23.3696556  46.6126156   6.4452147  23.5628891
  56.6182661  36.6580081  15.9523857  56.0918188  37.3993516  15.6532300
  57.4893808  36.8214893  15.5909061  57.3990726  37.7745986  43.5884666
  57.7972698  38.6373353  43.7040472  56.4670658  37.9553890  43.4663725
  79.5615149  12.9536605  38.0872846  80.3605652  13.4594238  38.2354331
  79.6893120  12.1505594  38.5921884  26.3023925  30.7985592  47.8309155
  26.9303560  30.9969282  47.1362591  26.8411970  30.4936838  48.5609627
   6.6836405  47.4557304  13.0199468   6.0542101  46.7789745  13.2690513
   6.3901579  47.7500772  12.1577060  76.7611122  52.5788355   1.5929604
  76.2834501  51.7526054   1.5193999  77.6104832  52.3326635   1.9592889
  71.9821072  17.0980048  61.3246346  71.2931728  17.1220422  61.9887304
  72.2897863  16.1916280  61.3314009  19.3190253  40.0907469  50.7548904
  18.4909451  39.8025751  51.1389112  19.8213601  39.2846465  50.6361866
  50.3958750  22.0093274  50.4144955  50.4506063  21.3502431  49.7225094
  49.6861506  21.7046165  50.9798956  57.6368809  23.2566929   2.1512796
  57.1053410  23.8973546   2.6237661  57.0010710  22.6445436   1.7808104
  31.7827964   1.0804806  57.4380827  31.2625957   1.2593155  56.6547298
  31.2951446   1.4957710  58.1493902  55.0115538  28.3898902  60.1381111
  54.9305487  28.4679556  59.1875458  55.0354576  27.4467468  60.2998018
  48.2738781  75.1835775  64.6229553  49.0820408  75.2254200  64.1117239
  48.3554506  75.8946276  65.2585506  30.5137110   7.5323939  55.5814981
  29.7607875   8.1141680  55.6857920  30.2702665   6.9526374  54.8598003
  56.7835474   7.2930074  53.6201620  56.1045361   6.6189086  53.6479235
  56.3013315   8.1196386  53.6397648   1.2238178  69.9505091  38.2138419
   0.8481461  69.0781212  38.0953383   2.0404711  69.7970915  38.6889958
  11.0057509  14.8707354   0.2426438  11.6286767  15.4490006   0.6828775
  10.4462981  14.5414209   0.9460610  10.9995472  71.8811560  38.2624936
  11.5164042  71.3178205  38.8384676  10.9319830  71.3893604  37.4440789
  72.9567623  11.3614917   3.0569515  73.6931419  11.7613828   3.5196173
  73.0765867  11.6236007   2.1441689  10.9532189  75.0427055  64.7712994
  11.3677621  74.3060684  64.3221378  10.9202790  75.7367992  64.1129780
  38.1514573  19.9086332  31.8269634  38.4194493  19.8291349  32.7424359
  38.8609481  19.4975448  31.3331413  54.7550011  39.6530414   5.1424140
  54.2481470  39.1213942   4.5286706  54.7513771  40.5301571   4.7591606
  63.1599474  64.3524456   3.7352443  63.1547928  65.1423836   4.2758030
  64.0364933  64.3306828   3.3512843  81.0084915  52.3990774  61.2459660
  81.2911129  51.5646887  60.8715963  80.2744007  52.6720953  60.6956863
  16.1197948  20.2186704  59.8760176  16.6372931  19.8825645  60.6077671
  15.2133775  20.0242710  60.1144457  39.7819996  68.1077147  36.2440991
  39.0356660  68.2529211  35.6626081  40.4453230  68.7281418  35.9419322
  75.6174517  37.1395469  16.2536144  76.3063145  37.3909140  15.6383789
  74.9032402  36.8263412  15.6986034  20.7738256   7.8374213  64.7648954
  21.2287426   7.7345973  65.6007814  20.4045343   6.9727927  64.5852423
  75.2506733  61.0243320  54.7600126  74.6930981  61.4094353  54.0839672
  75.4046583  61.7382193  55.3787899  67.0190048  12.1877158  41.9742489
  66.4349937  12.0910645  41.2220430  67.6953411  12.7957714  41.6757965
   6.0255563   1.2648726   5.8283854   6.1668825   0.4531284   6.3155508
   5.3053528   1.6972947   6.2872428  29.5814133  16.8221021  62.8252888
  28.7075758  16.5218103  63.0752087  30.1093388  16.7068911  63.6153841
  61.5461349   5.5147856  53.5877275  61.2051916   6.4052528  53.6717272
  60.7907629   4.9520487  53.7579346   4.2182466  72.0262146  27.4572325
   3.5063875  72.5272703  27.0591974   4.7942513  72.6892805  27.8377509
  42.6205015  15.7423604  26.7449379  43.0223465  16.5733159  26.4914346
  43.2205582  15.0748324  26.4124179   2.5500831  49.8818922   8.9184940
   2.4305150  49.9643850   9.8646075   1.7821273  49.3936443   8.6216927
   8.7807614  67.4905729  44.9479294   9.5998645  67.9756212  44.8477650
   8.1319582  68.0171394  44.4810057  82.1769142  73.3062315  13.4673870
  81.8709850  74.2127657  13.4961784  81.3840485  72.7821493  13.5811436
  46.6202593  47.5632191   0.5457875  46.5218306  48.4744787   0.2698367
  47.5316620  47.3495674   0.3459615  55.2857256  21.9652390  41.2195492
  55.0004005  21.6122103  42.0622778  55.4328060  21.1927962  40.6737185
  42.9727602   6.9199955  28.5041142  43.2096481   6.8655366  27.5782895
  42.3157597   7.6150393  28.5427547  25.4198360   0.5411631  13.7514079
  25.4032350   0.8938833  14.6410954  24.5027471   0.5396099  13.4772241
  65.1321030  77.5085306  52.5920630  64.8542690  77.5248289  51.6762161
  64.8412371  76.6558599  52.9154539  50.6557035  69.0951824  44.9621868
  50.4271126  68.7729645  44.0903187  51.3957357  69.6838236  44.8135710
  23.6382699  62.3693180  27.9433370  24.3700910  61.7557049  27.8789020
  23.9160252  63.1280947  27.4301696  50.3979731  23.0017900  25.0423026
  50.3457022  23.9378500  25.2354169  49.5921135  22.8108931  24.5623255
  80.8809185  38.2866621  47.6566982  80.2928448  37.9114747  48.3121634
  81.1787510  39.1092992  48.0450201  11.6115558  54.8262930   4.2694360
  11.1642253  55.6078625   3.9449692  10.9229660  54.1642189   4.3305567
  39.4766331  75.9707689  62.9776096  40.0729465  75.7490730  62.2624159
  39.2518973  75.1280499  63.3720112  28.8746643  73.9121437  30.7439709
  27.9686928  73.6593533  30.9215832  28.8209772  74.4625425  29.9626827
   4.9079821  66.4180040   1.8695475   5.6609923  66.7700243   2.3441924
   4.1808069  66.9894266   2.1163745  49.2075443  34.5459199   3.9004344
  48.4412670  34.7549963   3.3662626  48.9204359  34.6976447   4.8008683
   0.4815480  72.0809364  50.3729391  -0.2425119  71.5321827  50.6743383
   0.8529892  72.4489737  51.1746979  35.9478259  34.6716619  58.1761837
  35.5753517  35.4912090  58.5015059  36.2541890  34.2191911  58.9620876
  65.6596422   6.4333975  36.8504095  65.1296759   6.8240762  36.1556172
  66.5546465   6.4587480  36.5119481  44.3043184  18.2244933  50.7472277
  43.4529257  18.6528337  50.8360386  44.1000462  17.3541772  50.4050970
  70.3661919   8.5199064  33.1430745  70.4732132   8.5467243  34.0938950
  71.2371397   8.3036643  32.8100228  20.5654311  38.8457894  24.4451809
  20.6576228  39.7970462  24.4984865  20.7098508  38.6425710  23.5210180
  18.8813722  76.3816977  65.7504463  18.3099234  77.0302773  66.1615705
  19.4667399  76.8962336  65.1947212  66.8099976  67.0823526  52.3695612
  66.3290930  67.9092646  52.3351002  67.4063683  67.1207714  51.6218328
   4.2103764  40.6067896  13.2134032   3.5668963  40.9734964  12.6070261
   3.7251359  40.4776573  14.0283251  73.6523390  75.7341337  29.5954108
  72.7517414  76.0541058  29.5427895  73.8414717  75.7042027  30.5332637
  27.5415897  11.5950215  47.6007986  26.6347313  11.6206968  47.2955370
  27.7500987  10.6623209  47.6539469  75.8078575  58.2481432  13.0236030
  76.2462473  58.5259867  13.8278723  76.3400269  57.5215101  12.6995039
  44.7261095  26.9095659  62.9422140  45.6119490  26.7015362  63.2392645
  44.4112015  26.0991049  62.5419378  35.6381989  68.8918066  46.8185425
  35.3695798  68.0012083  47.0441818  35.4096532  68.9838219  45.8935928
   8.4591925  64.3964863  54.5943117   8.8754970  65.2557564  54.5266724
   9.0818995  63.8672113  55.0926447  75.8628082  17.9416013   6.6873276
  76.1594534  17.1924090   7.2039926  75.9460735  17.6536655   5.7782662
  67.6539326  69.1393948  25.7401586  66.9281435  69.1961336  26.3616467
  68.2087469  68.4388494  26.0831523  75.1103449  47.3393059  35.2211785
  74.6606874  47.6610994  34.4398403  74.4062567  47.0410204  35.7969522
  21.6377354  17.9445004  61.5880728  22.3570895  17.5659883  61.0826111
  21.8370461  18.8800013  61.6247511  70.9899569  47.7408314  61.3922930
  71.4567566  47.2070885  60.7492971  70.7507658  48.5356045  60.9154701
  39.2677307  19.3758786  56.3168144  39.1764474  19.3712282  55.3639889
  38.5026073  18.8954604  56.6330719  61.8542624  38.4466624  13.7345231
  61.1349440  38.2630730  13.1302845  61.5484238  39.1918468  14.2516220
  33.6832762  52.6953554  36.0652995  33.7047172  52.8387117  35.1191401
  32.7516484  52.6410055  36.2782574  42.1029043  47.3971844  16.9348192
  41.7411184  46.7767334  16.3020599  42.7925110  47.8549147  16.4540255
  65.3992605  67.7693701  22.3099232  64.5773697  67.8893471  21.8341732
  65.7660103  66.9599724  21.9541097  40.9902430  67.7670479  45.0476837
  41.1827755  68.6523390  45.3565931  40.0448704  67.7660275  44.8976803
  45.9222269  62.0777464   5.1590627  46.7278004  61.9316149   4.6631521
  45.8149052  61.2827635   5.6812859  82.1531533  45.1681614  28.6484528
  81.8595816  46.0219145  28.9664912  82.8863364  45.3684855  28.0666065
  78.6302996  62.6879358   6.5406060  78.5956049  62.1356153   5.7595980
  78.0622482  62.2461748   7.1717918  68.1002426  25.2017307  48.0186892
  67.5394630  25.6932163  47.4185228  68.3684778  24.4308043  47.5187349
   2.7625147  69.8745346   4.6704969   3.0944943  70.7299614   4.3979725
   3.0569363  69.7808933   5.5764651   3.8659680   2.1971609   7.3901081
   3.4235820   3.0433509   7.4571055   3.8423079   1.8434606   8.2792473
  23.2884288  68.9922380  13.5493541  22.8125811  69.2101431  12.7479064
  22.9397988  69.5948696  14.2062569  47.5176811  55.6769514  64.7649336
  47.2116470  54.9466038  65.3026772  46.7339087  55.9835196  64.3089151
  33.6229396  72.5654745  20.6658745  33.4520221  72.6723623  21.6016054
  32.7704501  72.3453999  20.2902937  22.8146648  13.0456817  45.8500624
  23.5421968  12.8013813  45.2780056  22.2444296  13.5801029  45.2973795
  64.4319010  29.3881774   8.6051899  65.0359535  29.6859503   9.2853999
  64.9913406  29.2106819   7.8490454  68.3741093  68.8154078  21.6937375
  67.5202227  68.4768629  21.9629931  68.3167505  68.8790464  20.7403803
  56.0871029  13.8480651  45.8353615  55.4045010  13.1788218  45.7863760
  56.9075298  13.3555293  45.8121252  59.5297289  32.1097469  56.1588812
  59.2372751  33.0208015  56.1327124  59.2138338  31.7331100  55.3375483
  45.5420923  30.7880688  56.0020590  45.2745390  29.9925995  55.5417633
  44.7377253  31.3008022  56.0815954  72.1808338  15.2203238  43.9984226
  71.5180206  14.7781563  43.4679508  72.7766323  14.5215702  44.2686081
  34.9045062  14.1109490  37.9535651  35.7764554  14.3053734  38.2972717
  34.6584463  13.2881200  38.3762193  42.8608131  29.5627117  49.3829107
  42.9789495  28.9208746  48.6826801  43.4995222  30.2488256  49.1891766
  52.0332146  49.3576097   0.1788424  51.1063290  49.5795059   0.2675714
  52.3122549  49.1348648   1.0669602  13.0232751  63.7954903   5.5726320
  12.9687321  64.5994663   6.0892338  12.6794672  63.1150675   6.1514723
  46.0576344  22.6587319  43.3997250  45.8510542  21.7958808  43.7589502
  46.0453320  23.2429957  44.1578293  64.2109680  42.8173018   2.5123033
  64.1640043  42.3929071   1.6556156  63.3142471  43.1024694   2.6878077
  63.7914753   9.7015488  53.4504986  64.4203186   9.0590554  53.7791157
  63.7547731   9.5402455  52.5077009  45.9138918  39.4058442  47.8366804
  46.3044739  39.0795755  48.6473751  45.6658316  38.6163402  47.3556614
  13.0627155  65.5491877  54.8218346  12.4409258  65.0889778  55.3855896
  13.7526822  65.8435202  55.4164314  49.4399214  11.6524947  63.2548809
  49.5596457  12.6003540  63.1960440  50.1489830  11.2881732  62.7250385
  74.3410110  27.4572778  51.5220785  75.2816629  27.3200107  51.6341591
  74.0563250  26.7274570  50.9720373  61.1561537  39.3046260  30.2352786
  60.8584595  38.4066534  30.0894856  61.9145632  39.2148232  30.8123231
   1.3413467  37.5133133  17.7327573   1.8385491  36.8530273  17.2500122
   0.6824421  37.0126557  18.2138169  49.0420914  40.1089239  61.9189548
  48.5426903  39.3444729  62.2060871  49.8941374  40.0119305  62.3442125
  28.3457518  28.8551760  48.7568283  29.2334199  29.1930175  48.6379194
  28.4172535  27.9205179  48.5630846  53.6789322  30.3567052  48.4911537
  53.0698490  30.2031422  49.2134190  53.9194727  29.4804382  48.1902742
  18.8808835  75.7490826  43.5058403  18.1980133  75.5577421  44.1487312
  19.6931899  75.4718161  43.9295292   2.9634699  49.5164251  40.5617666
   3.3860049  48.6597490  40.6234264   2.5310078  49.5092773  39.7078586
  36.9791079   4.3304819  40.3144741  36.9264555   4.8414683  39.5067930
  37.9132748   4.3056259  40.5217028  52.5657320  21.9076157  44.6177292
  53.4544611  21.7878270  44.2830038  52.6299381  21.6957092  45.5489683
  68.8317633  41.2005424  25.2839994  68.3895254  40.9606361  26.0983109
  68.3513594  40.7298613  24.6028948  11.8619931  47.2010565   5.1949590
  12.6371253  46.7766762   5.5627960  12.2117400  47.8817654   4.6200311
  61.7840528  34.1596889  43.0610561  61.7244673  34.6445131  43.8842392
  61.6415882  33.2464933  43.3100796  50.4379177   1.7958745  41.4436007
  51.3235855   2.1582493  41.4661551  50.5568838   0.8617545  41.6153526
  73.5348272  39.5870304  54.3971300  74.0001392  40.2605200  54.8932457
  72.9864645  39.1470075  55.0466728  57.9557419  31.7722559  58.7669945
  58.2017374  31.6848373  57.8460836  58.2782030  32.6372719  59.0199709
  61.6882563  34.0274549  48.9158201  61.8214703  34.9465394  49.1477108
  62.4752808  33.7873292  48.4267712  54.1007042   8.8833189  58.9299679
  54.4519901   9.4850546  59.5862770  54.8351192   8.7185937  58.3385849
  63.4833860  54.0832567  11.5588820  63.9611626  53.7147713  12.3019695
  62.7683306  54.5800877  11.9564831  69.9361849  41.5644693  13.8021004
  70.2493525  41.9270182  12.9734182  69.5085526  42.3008204  14.2393029
  71.8353176  69.7989511   8.6566651  72.1924019  70.5147028   8.1309044
  71.9321012  69.0239096   8.1033379   2.1409492  12.5124729  51.5049314
   2.9113618  11.9644594  51.6545248   1.5059569  11.9259238  51.0938644
  78.6363316  29.7159243   5.3855169  77.9338408  30.0284839   5.9556437
  78.9809752  28.9425659   5.8320272  63.0139923  12.6444519  36.3959885
  62.2640371  13.0044794  35.9225178  62.7976322  11.7203367  36.5202117
  43.9615011  71.1072493  26.7229867  44.7505522  71.5929794  26.4827847
  43.3391142  71.7813015  26.9959712  38.4116626   6.1747116  52.9041147
  37.8636765   6.7680979  53.4177637  37.7960920   5.5457753  52.5276232
  39.1875243  48.9381838   8.6236829  39.4233966  49.6093655   9.2640823
  39.9381804  48.3443832   8.6115479  49.2678404  77.5784397  48.4026384
  48.7998629  76.7456293  48.4631300  49.3130350  77.7601480  47.4639320
   4.0371090  65.0505304   4.9376622   4.4817400  65.3922749   4.1619378
   4.0329516  65.7832193   5.5536044  70.7412004  63.3211374  37.4105692
  70.5234909  62.4722004  37.0256805  71.5252209  63.6036253  36.9396710
  25.9056735  26.6853356  12.1404958  26.4011121  26.6501093  11.3222456
  25.9253454  27.6084614  12.3928499  21.5969563  60.8305311   2.1767466
  21.3504362  60.5329323   3.0524716  20.8059192  60.7101965   1.6513781
  46.7488861  73.2694769   9.4016540  47.1038342  73.1107283   8.5269868
  47.3427773  72.8026152   9.9895048   1.6160928  33.7237000  29.8583436
   1.3771063  34.0740895  30.7164478   1.2744629  34.3642497  29.2344713
  49.4377851  68.4474134  42.6218796  48.5123444  68.3728361  42.8547621
  49.6056461  67.6895523  42.0617914  65.3423738  45.8482981  46.6957378
  65.5339861  45.2484846  47.4166632  66.1941338  46.0199499  46.2941504
  82.1115875  16.3867068  57.5377893  81.2687683  16.8398368  57.5138569
  82.0260143  15.7595110  58.2557964  42.1254826  24.2449927  44.0121126
  42.0340109  25.0911212  44.4502115  42.4248219  23.6503124  44.6998501
  54.7557163  16.2960899  27.2144508  55.1422310  16.0607147  26.3709831
  54.4886732  15.4603314  27.5971103  41.4187193  67.7507734  50.3297758
  40.5924654  68.0065060  49.9197292  41.8400478  68.5797119  50.5568790
  68.3932829  48.1614065  39.0074658  67.7431440  48.8284206  38.7869048
  69.0284061  48.6189222  39.5583963   0.0638098  25.1462197  59.4531584
   0.6536300  24.4529915  59.1568804  -0.2091236  25.5883026  58.6492252
  56.1695004  26.2906027  50.3723288  56.7501736  26.8141484  49.8200989
  55.2874756  26.5414381  50.0978327  47.0417404  15.6028068  28.3684182
  47.5299644  15.0826561  29.0066290  46.7028475  14.9604499  27.7449107
  16.4960051  27.7590036  60.3294039  15.9856510  27.1031904  60.8044624
  16.6971755  27.3443270  59.4904757  50.2187490  11.1700630  59.6450329
  50.2677393  11.4271569  60.5657578  49.6015501  10.4385197  59.6331406
  34.3012261  27.3410678  61.9058609  34.6652579  26.5224957  62.2429800
  34.4590116  27.3028135  60.9625292  37.3697996  76.2125874  66.6962528
  36.9132781  76.9854212  67.0287418  38.2719517  76.5048409  66.5661001
  66.0665655   7.3313689  42.1106720  65.8408165   7.7795732  41.2955761
  65.9885979   8.0064714  42.7847576  39.8627400  75.0345135  36.5330482
  40.7383633  74.9245119  36.1623549  39.8796749  74.5244741  37.3428655
  32.6596475  13.2931685  52.8691626  33.1680179  12.5968504  53.2850122
  33.2517195  14.0451181  52.8531551  71.2080812  15.5989718  50.8638477
  71.8626308  15.7993650  51.5329027  70.9049225  16.4550281  50.5613661
  70.8651543  45.2161741   8.0406737  71.3793468  45.8385038   7.5263363
  70.2618504  44.8243713   7.4092108  67.8088093  63.9195633  14.3581688
  67.7408838  63.1126308  13.8477945  67.0983934  63.8595104  14.9968660
  36.4717889  67.3541594  53.8967419  35.7387114  67.4258184  53.2854366
  37.2224069  67.6972151  53.4118509  24.9130321  69.0970469  46.9253778
  24.1685224  69.4696569  46.4530468  25.5557895  69.8056507  46.9566154
  62.4376440  50.1608753  23.5088992  63.1076717  50.8343029  23.6263418
  62.5038099  49.9155426  22.5860429  37.6374912  12.8881955  56.2447453
  38.4725571  12.6134658  55.8660412  37.2721219  13.4970117  55.6028128
  65.0880671  43.1392622  38.9435601  65.4813194  43.8796473  39.4055271
  64.4737387  42.7627373  39.5736885   2.4460879  74.1263723  39.7627902
   2.6205033  73.7509298  40.6258392   2.4682783  75.0727844  39.9043703
  33.4221101  69.4627571  44.1387558  33.6651802  70.0210524  44.8773050
  32.7788448  69.9772215  43.6511421  30.8791518  64.8438358   1.5473333
  30.1337481  64.6591759   0.9759257  30.4877591  65.2071619   2.3417130
  76.5886545  53.0149984  53.1629372  76.7757750  52.5352526  52.3560524
  76.8513918  52.4176168  53.8631773  78.0456161  30.2497387  61.1298895
  77.2946596  29.6676064  61.2457466  78.8051796  29.7045398  61.3349533
  81.6334438  38.3644152  55.0519514  81.8671799  38.4276795  55.9780169
  82.2672462  38.9262700  54.6060371  53.3427906  63.0210495  60.2091074
  52.5990629  62.4877739  60.4896736  53.8149881  63.2180405  61.0180902
  69.4720936  65.6735945  22.8305793  68.8148069  65.5281353  23.5110569
  70.3102684  65.5733776  23.2818556  51.4586401  56.5152359  63.4327650
  50.8966732  56.6693258  64.1921568  52.2715712  56.1706161  63.8023806
  72.8504896  59.0116596   3.8213181  72.6083612  59.1154671   2.9010835
  73.5839796  58.3968067   3.8081032  12.1364868  42.4737167   6.3016713
  11.5332401  42.0163774   5.7158703  11.7766333  42.3288107   7.1767360
  65.9979630  14.4169438  56.8243885  66.5067863  15.2194631  56.9396830
  66.1097240  13.9420879  57.6479483  59.3280029  11.4542353  62.2468185
  58.5729551  10.9070718  62.0306063  58.9476204  12.2818029  62.5412226
  40.1776457  14.6861243  28.0206966  39.7744894  15.0648093  28.8019109
  41.1048698  14.6061397  28.2445073  60.0940037  50.6710911  38.5179496
  60.5623198  50.2876425  37.7764106  59.4815969  51.2900209  38.1203127
  67.3616409  27.3140621   2.3160309  68.3134222  27.2726655   2.2231345
  67.0912647  28.0015707   1.7073785  66.9018507  15.1429892  45.3071785
  67.6905155  15.6298161  45.0679398  66.3153124  15.2545881  44.5590115
   6.0426223  32.3527408  10.3305972   5.8236390  32.3667312  11.2623072
   5.1993686  32.4345708   9.8851109  15.9400249  39.3868923  49.9284172
  16.2749803  39.1495991  50.7931280  15.0459826  39.0451860  49.9158335
  15.3089678  71.9813347   7.9883385  15.0533676  71.8767548   7.0718431
  16.2140369  72.2906446   7.9507792  47.3448038   7.1568733  48.5663652
  48.1139660   6.6778129  48.8747883  47.4385834   8.0304974  48.9461279
  32.1710229  15.2919805  18.9372325  31.8603420  15.0121772  18.0761755
  31.3933420  15.6451845  19.3693113  49.9064779  18.5309124   5.8328825
  50.5261469  19.2454147   5.6854779  49.4242144  18.7902689   6.6179866
  57.2880602  17.0704317  63.0869865  56.9391060  17.2975147  63.9489031
  58.2383251  17.0926535  63.1998634  16.6844225  24.7545028   8.0961758
  15.9683383  24.7596908   8.7313354  16.2527728  24.8549986   7.2477591
  63.9724684  24.7736716  60.5644798  63.3793831  25.5189443  60.4693604
  63.4124088  24.0590429  60.8675814  45.1699638  25.2992582  66.7246962
  44.3837500  25.7387328  66.4007235  45.3538465  24.6246505  66.0709953
  30.1931453  76.1934566   8.0529815  29.3415594  76.0801315   8.4751052
  30.7567835  76.5460730   8.7416065   2.3354436  44.0274715   4.3075997
   2.9850376  43.7441492   3.6641806   2.3137990  44.9806213   4.2223537
  57.7588558  16.0011303  41.3759995  58.4817362  16.5844524  41.1448908
  57.4251986  16.3491964  42.2028971  28.0909395  37.0098352  16.3306653
  27.2167873  37.3558474  16.1507666  28.5227346  36.9940424  15.4765368
  66.8477488  15.3742623  40.8061552  66.1027908  14.7824216  40.7012939
  66.5383339  16.0428047  41.4173412  21.5854216  64.8724842  14.8707092
  21.2003255  64.1768694  15.4036689  22.5279713  64.7103310  14.9099505
  -0.0199954  40.0370121  65.7054424   0.3101645  40.4290199  64.8970127
   0.5419212  40.3955984  66.3923931  25.3573132  50.0987625   2.5166601
  25.0801873  49.4586992   3.1722176  26.2429571  50.3459501   2.7826783
  74.6715593  56.2129688  42.9991436  74.2268515  56.9693279  43.3817482
  75.4378986  56.0784054  43.5566807  63.6825895  65.9701920  49.5571184
  62.9110336  65.5100107  49.2267227  64.3780470  65.7463932  48.9386654
  30.6712222  31.8735576  44.3414640  30.8930469  30.9936357  44.0368938
  29.9887991  32.1704388  43.7394714  49.4568396  38.0068946  65.6922531
  50.2732849  38.0681586  66.1881304  49.0514851  38.8684034  65.7908821
  65.2384043   7.8937459  54.9502754  65.8665419   8.2492274  55.5790138
  65.6467390   7.0881855  54.6331549  69.9596643  11.2191629  60.6670713
  69.5482302  12.0829105  60.6969976  70.7759571  11.3591921  60.1871967
   1.0960170   5.3628242  40.0531626   1.0135737   6.0744691  39.4183421
   0.7677481   5.7334232  40.8723831  52.7281427  18.0876815  64.3991375
  52.1892023  18.6095881  63.8046694  52.3280811  18.2150853  65.2593422
  81.0112286  12.0738089  46.4632177  80.2614212  11.5361238  46.7180061
  81.3470078  12.4231231  47.2887230  47.6074600  13.1959426  49.2797947
  48.4003830  13.3780289  48.7754631  47.6921320  13.7389076  50.0635386
  78.7795162  33.0677080  32.0863533  78.5044479  32.4240160  32.7392149
  78.1223249  33.7614012  32.1422482   5.7807618  62.1184587  66.4709473
   6.0145032  61.8533230  65.5813932   5.0067466  61.5959644  66.6810226
  43.3604002   5.3679991   1.7659691  43.4227514   5.4582644   0.8150767
  42.7107763   6.0209626   2.0264569  14.6773362  67.3652172   7.4995464
  14.8646295  67.8770065   6.7126393  14.9093783  67.9462194   8.2239938
   2.6445240  16.7674935  58.4670210   3.2796866  17.1721780  57.8762341
   1.8005416  16.8918800  58.0329084   6.2959528  57.1661282  -0.0148747
   6.0427505  58.0092239   0.3610451   5.7285398  56.5297794   0.4202474
  82.1258640  17.6680195  42.2491026  81.9555950  18.5557401  42.5640440
  81.8931103  17.1035743  42.9862976  24.0588117   6.6504550  63.5442448
  23.9951134   7.0918190  64.3912220  24.5764828   5.8651233  63.7217331
  19.0392613   9.9394536  24.3866992  19.9307930  10.0047278  24.7289610
  18.5262311   9.5968020  25.1185608  41.8253040   2.3222214  16.1370647
  42.6633072   2.7088106  16.3910949  41.2063503   3.0518037  16.1660874
  54.0612888   7.1609634  65.0053883  53.1301260   7.3417634  65.1337671
  54.1470051   7.0018291  64.0654087  71.5326118  41.7775154  24.0095925
  71.1368799  42.2003365  23.2474589  70.7881737  41.4615393  24.5216537
  42.2420835  65.2961111  50.2050734  42.0677185  66.2102795  50.4289675
  42.9160500  65.0215864  50.8268690  51.8614340  75.3675747  33.3003902
  51.6328239  75.9985542  32.6178718  51.0506392  75.2444172  33.7940192
  33.2338214  36.7218375   9.3869853  32.5496054  37.1141601   8.8446170
  32.8616142  35.8889341   9.6767586  13.6020255  18.9996076  23.8709378
  14.3738711  19.5655036  23.8551998  12.9108167  19.5475805  24.2426729
  46.6584301  28.7622666  59.5285606  45.9526777  29.0131593  60.1245499
  46.5155268  27.8296375  59.3672752  51.1549473  64.7009039  47.8218222
  50.8644772  65.3666830  47.1984434  52.0696163  64.9209690  47.9984236
  39.3702221  45.7139921  54.1612339  39.5540428  45.1147556  53.4378004
  38.6656928  46.2739992  53.8352585  44.0151930  46.1644983  55.7763386
  43.1390429  46.5418625  55.6977034  44.0766525  45.5476761  55.0469637
  60.9345388   8.3958101  47.7360344  60.1268959   7.9099876  47.9031229
  61.6077423   7.7203196  47.6539135  43.2891607  17.4954879  53.9946795
  44.2180777  17.2951901  54.1097021  42.8997660  16.6694689  53.7078094
  66.5270853  67.3699570   2.3781992  66.6369867  66.7553997   1.6526157
  65.7190132  67.8403664   2.1733384  79.4870710  46.1522341   9.8308843
  79.5499754  45.8304214   8.9315999  78.5542345  46.1003923  10.0391209
  67.6373911  56.0170460  59.2589331  67.8480053  55.8290148  60.1735497
  67.7178288  55.1722717  58.8160753  82.3652077  57.7021980  24.7591591
  82.7994919  57.7611971  25.6101274  81.4909077  58.0610323  24.9110651
  57.4900198  37.3448253  49.8200846  57.3595810  37.4836779  50.7581329
  58.3341599  37.7551913  49.6323156  66.0367203  34.7038794  34.6832967
  66.3132429  34.9726152  33.8071990  65.1712608  35.0978971  34.7926760
  20.3660989  17.0837820  36.7525315  19.7004068  16.4202213  36.9335699
  19.9169171  17.7318609  36.2098908  14.7774792  69.3015194   9.6230948
  15.5393088  69.2183113  10.1966143  14.9361038  70.1060772   9.1293758
  20.1121330  65.8603764  22.7603555  20.8089185  65.2060747  22.7092648
  19.3693995  65.3902245  23.1392169  44.8407841   7.1721190  53.1132603
  45.7714939   7.0430964  52.9305887  44.7136545   8.1188518  53.0518818
  72.1706438  37.9975486  13.5018957  72.5456095  38.7134910  14.0147889
  71.3056183  38.3155656  13.2433820   7.9364777  75.8560324  29.0399837
   7.6085526  76.0877800  29.9088860   7.8210020  76.6515827  28.5203695
  78.2849503  72.0495605  12.0248413  77.5522089  71.4360809  11.9704092
  78.2194376  72.5724173  11.2257409   6.1089462  12.6044738  38.2715487
   6.0113525  13.4844327  38.6353874   6.4370024  12.0786941  39.0010452
  75.6522751  35.5154324  36.1255860  75.2248669  35.8290052  36.9225955
  76.3805866  34.9794102  36.4393950  76.7207146  16.8390679  39.1577148
  77.4876738  17.1836030  38.7002254  75.9768677  17.2685909  38.7352943
  42.4520969  74.3168592  41.3063812  42.6190376  74.1734505  42.2379351
  42.4546576  75.2688169  41.2063694  35.6124139  18.7764013  42.2171736
  36.4379406  19.2356145  42.3716545  35.6070113  18.6035752  41.2757206
  71.8911886  64.6363115   8.5072678  72.6072979  64.2182112   8.9854002
  71.2753296  63.9256287   8.3287078  23.4118533  34.8008132  18.6485374
  23.8679338  33.9676213  18.7669253  22.4839878  34.5660830  18.6345494
   8.4796846  36.9868565  18.4632325   9.0945810  37.4146438  19.0591621
   7.6661837  36.9231772  18.9636242  56.1786747  69.7253323  43.5964108
  56.4938974  70.4609442  43.0712986  55.5613947  69.2696428  43.0240965
  15.0488424  28.2349896  39.9304008  15.1194191  28.9104986  39.2559099
  15.4826760  27.4709749  39.5505285  75.5132055  17.5745499  63.5239410
  74.6767235  17.5565994  63.9889240  76.0961676  17.0357454  64.0587997
  29.6084428  11.6824174  45.0914955  29.9717999  10.9182560  45.5389977
  29.8075366  12.4170303  45.6719542  58.8482523  40.8733845  66.1397886
  57.9201603  40.6768227  66.2672091  59.2525959  40.6786776  66.9852638
  68.7381935  58.8955307  41.8010426  68.5784435  59.7970343  42.0803356
  67.8899193  58.5906887  41.4789581  74.2720842  29.2741919  44.7356749
  73.5522604  29.8966479  44.8387814  74.6495247  29.4838667  43.8813829
  60.0042725   7.7236319  55.9939671  60.3165007   6.8837798  56.3307095
  60.6456709   7.9674727  55.3265953  30.0467563  71.0334730  65.1721048
  29.9603748  71.7090178  65.8447218  29.1524291  70.7250977  65.0261211
  22.2267818  76.2230539  48.5576439  22.0180726  76.3242340  47.6289701
  22.3957682  75.2869701  48.6645412  76.6295385  57.0794392   5.3145719
  75.7646370  56.9130468   4.9397555  76.8945932  56.2387943   5.6877983
   3.5245469  17.3656595  53.5420465   3.0479547  16.5392554  53.6204529
   3.4308806  17.6097345  52.6212406  31.9168210   9.1268104  29.0316176
  30.9842086   9.1511446  29.2458010  31.9813299   8.4970427  28.3136606
  65.8670568  47.9780674  12.7238238  66.1664677  47.0971203  12.4990749
  65.0774717  48.1041956  12.1976304  72.8956842  43.0586576   0.8946923
  73.6627579  43.0812263   0.3225725  72.2246790  42.6123714   0.3781524
  42.1054411  27.0466709  44.0550518  42.5067902  27.1391797  44.9191093
  42.5429153  27.7056360  43.5159683  11.4052379  43.6658525  18.7105930
  11.5870273  44.4574070  18.2040060  12.0706534  43.0401659  18.4242892
  41.4304495  26.2550330  47.8660202  41.7251396  25.4621434  48.3140326
  42.2295189  26.7640448  47.7295303  15.7852340  25.8972883  39.3375039
  16.2269962  25.0686359  39.1519904  14.9505115  25.6411409  39.7297549
  43.7570715  70.3596449  43.6425781  43.0949593  70.5783319  42.9868221
  44.2024040  71.1883831  43.8189220  38.4097862  29.0826893  56.5416956
  38.9310431  29.6528482  55.9765053  37.9247856  28.5229230  55.9353399
  77.8804111  21.2676477  44.5242167  78.4351730  20.6561041  44.0399790
  77.6331663  21.9295597  43.8784790  25.3447199  70.0720310   5.3173470
  25.4987979  69.9398613   4.3819207  25.8067942  69.3485451   5.7407677
  58.1896067  48.3921671  65.0824118  57.6971006  48.2959557  65.8975267
  59.1010571  48.4778261  65.3619671  45.3762436  32.7487993  62.3694515
  45.1070213  33.1025577  61.5217495  44.9522448  31.8919468  62.4169874
   9.4696343  40.6294870  24.5525885   8.5346901  40.4567766  24.4417596
   9.6910620  41.2202120  23.8326979  54.4511175  27.5201201  57.6291370
  54.5861101  28.3450603  57.1627855  54.5606136  26.8454576  56.9590092
  12.8147435   5.1484442   6.5885407  12.0307457   5.5109489   6.1760247
  13.5327494   5.6829494   6.2494189  52.5990725  22.7627945  47.2918701
  51.9314432  23.2666945  46.8264771  53.0300665  23.4024167  47.8587532
  12.3815322  22.5200391  27.7558112  12.7116776  23.3039546  27.3168206
  12.8762710  22.4774861  28.5741353  78.0253458  20.0451422  41.4291000
  77.4163961  19.3475938  41.6716766  78.8857794  19.6258605  41.4382982
  61.5505505  26.1243105  43.0482244  61.1576605  25.7357860  42.2666168
  62.1699333  26.7704749  42.7090025  52.9325533  74.0104580  29.5037889
  53.4708214  73.3272886  29.1040587  52.0319748  73.7158966  29.3680525
  37.8020120  43.8902950  32.3374033  38.1640768  44.7452641  32.5701356
  38.5459805  43.2909393  32.3967147  78.7072039  14.7112298  40.7410002
  78.6810875  14.4081736  39.8334193  79.3954945  15.3763425  40.7517052
  76.4320040  31.8325377  27.6304984  76.7057753  31.8363404  28.5477042
  77.2021055  32.1354342  27.1494246   2.4685022  32.3500371  44.4087839
   1.7565385  32.2116661  45.0334406   3.2544908  32.0640612  44.8742628
  22.3252940  75.2451897  58.5104370  21.5909982  75.2552223  59.1243887
  22.0138383  75.7457542  57.7563381  69.9504471  49.8150826  59.9501181
  69.9176455  50.2060986  59.0770435  69.1036654  50.0305080  60.3410006
  33.1604505  32.2931266  13.0904603  32.8953981  31.9923782  13.9596713
  32.8663158  33.2031989  13.0518985  23.3412743  32.5132132  33.6654520
  23.5612297  32.2757959  34.5662785  22.4369907  32.2196746  33.5543895
  43.3766794  34.5015121  53.9885998  42.4453354  34.3120790  54.1023970
  43.6555529  34.8494840  54.8355818  13.6230087  31.5252829  33.9395809
  14.4319606  31.2019563  34.3361759  13.0061412  30.7986474  34.0273619
  21.3798571  32.8669953  17.1968520  22.1403480  32.6801181  17.7472734
  21.5406251  32.3755193  16.3913465  49.1632080  12.9831898   7.0320219
  48.5444880  12.4137354   7.4893403  48.6137676  13.6430252   6.6089797
  17.9795766  42.4628115  44.5298719  18.2456946  42.9063845  43.7244797
  18.7157500  42.5906038  45.1281595  13.8746274  29.9818182  44.3526506
  14.2630792  29.6782231  45.1731205  13.0720091  29.4679928  44.2630959
  10.5146909  50.6799746  11.1465895  10.1582432  49.9410439  10.6534827
   9.9288434  50.7713842  11.8980277   6.4079326  26.3106680  55.1534367
   6.6488749  26.0580206  56.0446978   6.4737499  25.5000710  54.6486282
  22.0423365   5.1502186  60.8573294  21.1133671   4.9280736  60.7948923
  22.2459745   5.5661297  60.0196075   2.9899228  39.3567252  61.3716793
   2.6704028  39.1435695  62.2484398   2.3917046  38.8991380  60.7809353
  15.2165425   0.3499455  56.5327740  15.0667286   0.5566409  55.6102419
  14.5265102   0.8218117  56.9990683  17.0416629  55.8379316  25.8377838
  16.6807139  55.1828718  25.2404213  17.4751770  56.4709663  25.2654505
   4.3504491  45.2146244  67.0381069   4.8839185  44.7035933  67.6467848
   4.9510273  45.4464769  66.3297415  69.3460989   8.2477885   7.2619349
  68.7033796   8.6074609   7.8733075  70.1932526   8.4448159   7.6616198
  71.0481405  30.4361033  33.6776924  71.6607094  30.1691985  34.3630791
  70.3026438  30.8034873  34.1525555  16.1625612  73.9194059  16.8167543
  17.0776057  74.1426516  16.9873071  16.0140920  74.1926289  15.9114695
  61.9718599  21.6829395  43.1037188  62.3888922  22.5426936  43.1597614
  61.0969353  21.8630934  42.7598000  48.5624313  75.6884575  25.6499934
  47.8522015  75.5392790  26.2741303  48.2670021  76.4317131  25.1241398
  10.1658964   0.9468909  31.8734503  10.5891156   0.0957182  31.7611051
  10.5267572   1.2876345  32.6919270  19.8562896  28.2977819  23.2298517
  19.0092742  28.5127258  23.6204863  20.4980278  28.5618210  23.8891602
  76.8837261  24.5777297  52.9574728  76.7362452  24.2062593  53.8272381
  76.9458485  23.8171864  52.3795938  80.7497311  24.6090126  64.7320223
  80.2329350  24.6458101  63.9271545  80.1498985  24.9075031  65.4156494
  55.1653290  20.3187919  38.3179855  54.3319368  19.9364996  38.0431342
  55.6267405  19.6009064  38.7515450   6.2718862  38.4886193  36.4459372
   5.3490102  38.5108018  36.1928773   6.6952050  39.1192245  35.8633804
  69.7176600  37.7590132  55.8817720  69.0214252  38.4111357  55.9606600
  69.2559099  36.9258451  55.7877111  71.9823170  26.1883211  33.5387325
  71.5040112  26.0481119  32.7215457  72.4247503  27.0282459  33.4162140
  25.5274510  17.2962868   4.9196461  25.7875943  16.4962077   4.4631046
  25.1923251  16.9925022   5.7632315  65.4545212  41.5474558  62.3262024
  66.0550213  40.9420538  62.7610874  65.2385664  42.1943903  62.9978228
   4.0153077  67.1373987  16.6264856   4.3136182  67.9806757  16.2857103
   3.7190133  66.6577482  15.8529389  63.9496803  45.8768272  29.7708607
  64.6978092  46.4693880  29.6973491  64.2411757  45.0693750  29.3474436
  70.5061150  26.9632101  46.2189150  71.2076759  27.0645905  46.8621683
  69.7813988  27.4796247  46.5715265  70.4345322  53.9557743  57.0550060
  69.5321655  53.7273169  57.2781134  70.4529428  54.9124336  57.0815039
  75.6034565  53.5915709  56.5570784  74.6732378  53.4546041  56.3777351
  75.7466316  54.5217466  56.3824177  30.7918787  68.9420605  32.9831600
  30.7433081  68.6705685  32.0665526  29.9472237  69.3584299  33.1547117
  72.0439148  40.9058285  29.6671987  71.8193531  41.6872072  29.1619778
  72.3539734  40.2789593  29.0136433  69.2879105  32.4879193  40.0394964
  70.0153160  32.8951836  39.5691252  69.7080755  31.9438004  40.7055473
  12.1814597  30.8681345  27.2545171  11.4286697  31.1033416  27.7969337
  12.3947442  31.6713548  26.7795634  74.2579174  47.3752069  42.0393372
  74.7351503  47.4779844  41.2159777  74.7721767  46.7390919  42.5364542
  67.7483177  59.5729065  51.5562582  67.8368092  60.0250053  52.3953104
  67.6245499  60.2751493  50.9176922  16.5476453  40.8984804  46.1380196
  16.2497616  41.6031599  46.7132807  17.1205688  41.3317823  45.5053759
  55.9462929  11.9496036  12.6008737  56.8939924  11.9316936  12.7341878
  55.5835772  12.0796216  13.4770966  58.2168436  37.7865958  37.8258848
  58.5015106  38.6856556  37.9898548  57.2699928  37.8538704  37.7026534
   3.4467229  44.9065781  32.6718426   3.3233753  45.8354473  32.4763680
   2.6515421  44.4854641  32.3453736  40.6580400  34.6304917  55.7587481
  39.7943616  34.2178845  55.7657576  40.9629011  34.5633674  56.6636133
  70.3749371  44.9705124  29.4031215  70.3459215  45.1350784  30.3456235
  69.6640253  44.3489695  29.2465138   2.0598298  31.2091589   3.0275643
   2.3583217  30.3786492   3.3982214   2.8542942  31.6169262   2.6829121
  42.5344181  74.9685621   5.9856462  42.7081299  75.8720064   5.7213730
  43.2336235  74.7617579   6.6057873  11.7647290  56.6125965  52.7413416
  12.1426308  57.4367380  52.4344063  12.0157957  55.9715986  52.0762682
  16.7098737   0.4053297   3.7141940  16.5701056   1.0568593   3.0270216
  17.1035194   0.8976483   4.4345394   6.3503045  64.9870920  -0.0531405
   6.0936815  65.3411388   0.7983456   7.1816468  65.4182625  -0.2511156
  63.9511681  37.2213292  52.2913837  63.4931993  37.9610205  52.6905727
  63.8041735  37.3275900  51.3515282  70.4927015  32.5688624  42.9940701
  70.6695557  31.6801715  43.3025837  69.5654297  32.7088928  43.1858873
  50.5999899  35.4314613  51.0823011  50.0073242  35.1564455  50.3827667
  50.8710957  36.3149667  50.8330011  74.8665619  75.7397604  37.5786948
  74.6822071  74.9132347  37.1324873  74.7647905  76.4065123  36.8994927
  69.6235991  39.1453648  12.9563856  68.6950397  38.9292717  13.0418646
  69.6975040  40.0301838  13.3139682  76.6170168  38.1767297  63.1529999
  76.8244076  37.7373242  63.9777088  75.6632233  38.1278348  63.0888128
  61.8187714  14.3841481  65.8599949  62.3214674  14.5511115  65.0627136
  62.1676016  13.5579014  66.1944580  34.6102619  59.3929052  18.9055574
  34.2529035  60.2427483  18.6480856  34.9123788  59.0018177  18.0857968
  10.5620134  13.3044136  56.2202740   9.6743411  12.9718137  56.3531160
  11.1177588  12.5260413  56.2592173  73.0394125  45.3457069  54.7551823
  72.2214746  45.8177471  54.9113369  72.7635479  44.4598055  54.5200205
  39.2081761   1.8911102  50.2410984  38.3085823   2.1822885  50.0921679
  39.2543411   1.0318982  49.8217487  76.0782957  18.9105916  46.0129356
  75.7343817  18.6444485  46.8656492  77.0150089  18.7199020  46.0623503
  68.2195234  33.9565682  36.3674951  67.5350666  34.1315770  35.7216430
  67.7877808  34.0784788  37.2130513  46.0300779  67.2650242  55.8924007
  45.2567530  67.7255774  56.2181187  45.6885719  66.4434290  55.5394363
  52.3465490  21.2877989  25.6090641  52.5193644  20.8162069  24.7942209
  51.5092993  21.7267418  25.4588151  34.2547870  75.5067587  45.3808832
  34.5779443  75.4837561  44.4801807  34.8966908  76.0378742  45.8521605
  43.8074112  48.5316515  51.9438362  43.9032888  48.4408808  50.9957838
  43.1774521  47.8531933  52.1869040  14.1935003  24.6407795  59.2906141
  14.5785010  25.4419804  58.9355326  14.9361145  24.0472198  59.4021559
  78.6154985  17.8318334  37.4689198  79.5629883  17.7019370  37.4286222
  78.4756470  18.6964786  37.0828342   5.3161615  65.2831793  46.3734579
   4.5777375  65.4817438  46.9492483   6.0262108  65.0429630  46.9687366
   9.1514999  39.6536279  60.9905910   9.9172902  39.0798903  61.0154867
   8.8827312  39.6546173  60.0718975  30.6436992  13.2929444  66.8550301
  29.9750710  13.9778066  66.8666077  30.9016085  13.2255292  65.9357023
  42.8595257  72.1768093  56.1426449  42.5877047  73.0490732  56.4281273
  43.7251997  72.3101091  55.7565403   3.3187857  36.5251398   3.6067978
   2.5590020  36.7024326   3.0522460   3.4500864  35.5794883   3.5379925
  57.0453215  28.1089640  53.0939150  57.5066328  27.4698782  52.5507784
  56.3980579  28.4994984  52.5067472  63.2604361  49.9952793  54.7899628
  63.8837433  50.4020548  54.1880894  62.6683092  49.5006895  54.2233992
  79.8784256   0.6303520  59.4583750  79.2144442   1.3017273  59.6152639
  80.7120895   1.0892583  59.5615053  72.8186750  31.7473030  41.4328003
  72.2057390  31.6640902  42.1632910  73.1562853  32.6401591  41.5039444
  63.3530283  23.7813830  65.6527138  63.9284897  24.0797734  64.9484158
  62.4864149  24.1055322  65.4074812   0.9132989  21.9027662  49.9019098
   0.6013814  21.2297249  49.2969656   0.1741854  22.0571542  50.4902172
   1.4482717  56.3515759  57.8330708   0.7510329  55.9595490  58.3588123
   2.2526911  56.1423159  58.3077860  32.9605865  37.7070713   4.6123374
  32.7008438  38.1506896   3.8048923  33.2849073  38.4084249   5.1772732
  14.7778642  17.5926864  45.6328726  14.3079519  17.9424644  46.3898849
  14.5810664  18.2057488  44.9245977  71.6616774  20.8559752  43.9525366
  72.5370407  20.4880524  43.8317156  71.3399601  21.0056067  43.0635262
  49.1147280  75.4609108   8.6433780  48.9637327  75.3205299   7.7086455
  50.0162506  75.7783890   8.6953354  19.2564559  57.3946571  37.9947805
  19.5699430  57.6914930  37.1404696  19.1412055  58.1992102  38.5003948
  36.4356613  32.1786475  54.5341396  35.6666565  31.6219997  54.4116259
  36.4758873  32.7099538  53.7389517  51.9720936  42.8333378  41.2556839
  51.8715763  41.9066000  41.0382271  51.3351107  43.2805586  40.6984711
  15.4365456  16.5186274   4.6322045  14.5249939  16.3175774   4.4203493
  15.9247375  15.7463717   4.3466833  77.6390314  55.9234858  11.3392186
  78.3135462  56.5294790  11.6458666  77.0289898  56.4731121  10.8472908
  63.4385157  41.9777441  41.0513449  63.1764793  42.5220442  41.7938471
  63.1725597  41.0919523  41.2980604  72.5093269  12.7515209  39.7766614
  71.9586563  12.9204273  40.5411673  72.3821306  11.8212128  39.5906997
  47.3185301  49.0036917  46.3115168  47.3010588  49.7860622  46.8627167
  48.1909752  48.6342001  46.4476967  19.5492971  69.5006132  46.8995380
  19.5273542  69.2499685  47.8230810  18.7885523  70.0707436  46.7879534
  62.7861643  30.6147766  51.9110680  62.9907417  31.5274620  51.7076302
  63.5502243  30.2999902  52.3941278  33.7849665   4.7605363   3.3027616
  34.1829205   3.8922784   3.2395786  32.8626180   4.6172684   3.0906829
  49.4073820  38.6473322  10.9406245  48.8392258  39.4159055  10.8884454
  50.2873421  39.0071130  11.0522568  62.1632814  73.6677694  40.0706005
  61.2441635  73.9145803  39.9679208  62.1565628  72.7106237  40.0627899
  41.4934254  60.0800705   4.0811220  41.7964697  59.3533516   4.6254343
  40.8358574  60.5230331   4.6174300  61.0572195  18.7538576  53.4363270
  61.7251587  18.1018949  53.6485386  61.2447977  19.4880366  54.0211582
  48.3591986   4.3834552  26.0693669  47.5418282   4.3823460  25.5712366
  48.3897161   3.5200423  26.4814591  59.9080515  36.8867350  47.4176884
  60.7246494  36.7025137  47.8818655  59.3133259  36.1891437  47.6931858
   7.2213823  47.9686499  63.8255835   7.9043454  48.0413103  63.1588650
   7.1103841  48.8612318  64.1530180  79.3323517  25.2035427  31.3943434
  79.2365360  24.6769786  32.1879315  79.7343731  24.6099377  30.7601190
  68.5214090  47.0162392  26.4272380  69.2988110  46.9193649  25.8772397
  68.1851864  46.1254644  26.5257430  37.2785997   2.7133590  27.0173216
  36.9416761   2.1186036  26.3472629  37.0181251   2.3122512  27.8464746
  34.9643779  62.4318790  56.0292339  35.3755856  63.0705452  56.6116858
  34.0631104  62.7399445  55.9341192  65.8839083  14.0197217  63.9852095
  66.2633562  13.2957649  63.4870768  66.4335203  14.0872538  64.7659731
  23.1282330  30.2012539  40.0469160  23.9488482  29.8088169  39.7488952
  22.6826453  30.4650474  39.2418718  65.3712893  44.4716167  57.7362061
  64.4665289  44.3638659  57.4428940  65.4193020  43.9740562  58.5525179
  79.1867781  17.3011672  55.0157881  79.6329212  16.5534794  54.6181059
  78.7850714  16.9462872  55.8088398  19.6061230  76.4092970  29.5323873
  20.0562048  76.5120983  30.3708935  19.4381118  77.3049164  29.2393494
   9.7706014   7.9247701  67.1936989  10.4177332   7.2304094  67.0699358
   9.6168512   8.2685047  66.3136768  14.3190086  36.9503331  50.3800201
  13.9763653  36.9380951  51.2737083  14.9993944  36.2770724  50.3751278
  66.1710262  29.2757797  40.6900930  66.7763233  29.4893670  39.9800014
  66.6385841  29.5263290  41.4868689  34.5309949  74.3658495   4.3743649
  34.2870879  74.7628593   5.2105010  34.2607403  73.4511948   4.4556299
  46.6767836  32.4701810  51.0632515  46.2306213  31.8024564  50.5423689
  46.1253309  32.5774264  51.8382549  53.5950613  46.2597084  58.3066797
  53.6292219  45.7315683  59.1042614  52.8957558  45.8635187  57.7868366
  70.4377031   8.0059588  13.8355219  70.5166340   8.3192408  12.9344904
  69.7285509   8.5288095  14.2096341   3.2993412   8.3335108  30.6304646
   3.5098460   9.2672765  30.6308842   2.7271885   8.2166320  31.3888931
  48.9139080  24.8139191  45.5677605  48.7371731  25.5626726  44.9982309
  48.0494928  24.4519067  45.7626104  66.6482544  38.2421088  38.3654022
  65.7715607  37.8584766  38.3869219  66.5740395  38.9750314  37.7542186
  35.3947759  56.3069105  11.2579894  34.6816850  56.7609882  11.7069292
  36.0025501  56.0654354  11.9569397  68.2767344   7.9097211  55.6435442
  69.0023804   7.8809762  56.2671137  68.0551577   8.8385093  55.5765486
  71.7760181  24.2656493  41.7296124  72.3029900  23.9258313  42.4528408
  72.2739363  24.0401006  40.9438372   6.9109321   9.1541404  33.0766964
   7.2620016   8.3203822  32.7639198   7.6843226   9.6957928  33.2338953
  72.0246077  75.1627922  55.1302433  72.8464842  75.6072044  55.3381968
  71.7308950  74.7992229  55.9655762  49.7378206  14.4612741  63.9364243
  49.1999626  15.1617527  64.3055725  50.5583763  14.8911214  63.6952877
  48.1080151  51.9729280  32.2827482  47.3549366  52.5384426  32.4539065
  48.7469625  52.5464630  31.8596172  23.2202053  27.5227261  30.9944630
  23.4366035  27.3861909  30.0720930  23.7667108  28.2616901  31.2618494
  18.8848686  75.5953741  13.6540246  19.2561698  75.9036160  12.8273726
  19.0279460  74.6489954  13.6427414  52.6500082  36.8843222  45.7199383
  52.4089050  35.9582639  45.7426834  53.1189966  37.0299625  46.5415668
  64.8642206  37.4411368  49.2933559  65.6600380  37.1928310  49.7637272
  65.0929976  38.2581377  48.8501787  11.9852817  20.8532023  25.1827669
  11.9966984  21.3394189  26.0072017  11.5709901  21.4493084  24.5588636
  13.0527735  57.1399593   5.2952957  12.9320312  56.2195349   5.0619018
  13.4472334  57.5345182   4.5175070  61.7395735  51.4729738  42.9430151
  61.6662645  52.3049927  42.4754667  62.6384068  51.4614582  43.2719374
  69.9207926  29.7763205  42.6916933  69.7494984  29.5130038  41.7875099
  70.7832718  29.4106793  42.8883362  36.9780993  16.9490671  14.3465078
  37.5332546  16.6721714  15.0754547  36.6095805  17.7856159  14.6304274
  27.5728130  10.1398909  35.4948473  28.2949901  10.6176090  35.9028602
  26.9668198   9.9617916  36.2140727  12.7264047  15.5096579  47.6877832
  12.2029650  14.8787963  48.1820059  12.1945298  16.3054025  47.6763296
  59.2318058  29.9007821  46.6520739  59.9678946  29.4286633  46.2628317
  59.3197393  29.7478271  47.5928736  12.5032353  72.3776245  24.0517712
  12.3782587  71.5900040  24.5811749  13.4125233  72.3263884  23.7571478
  23.8920032  18.7630607  67.4276159  23.5992252  18.4636976  66.5668643
  24.6256124  19.3488218  67.2407088  66.9389296   8.9035714   1.7386551
  66.2901163   9.3939888   2.2433971  66.5264273   8.0547041   1.5789744
  47.6646137  15.5577183  65.5901384  46.7512655  15.2978694  65.7105923
  47.9630470  15.7976758  66.4674044  71.0663366  47.1960068  42.9238367
  71.6518879  46.5696430  43.3493185  71.6070557  47.6109982  42.2517967
  41.3827276  74.3557072  57.5491667  40.6995726  74.4381428  58.2145500
  41.0194159  74.7905779  56.7777252  11.6454303   5.6845140  66.9587374
  11.9265378   5.4722434  66.0687065  12.3358965   5.3300357  67.5189447
  20.2394342  20.7993603  24.7113538  20.0171995  21.0714936  25.6017399
  20.7023335  21.5503359  24.3398833   5.6160116  25.9509921  41.1451340
   5.2344793  26.6794610  41.6350317   6.2067914  25.5270672  41.7676258
   7.2182578  37.0165682  50.9994221   7.8392601  36.8016982  51.6954231
   6.9585180  36.1683273  50.6399012  65.8477545  59.2610407  59.8460388
  65.7905436  58.9823675  60.7599831  66.7871475  59.3194485  59.6717978
  62.4724293  50.2256823  65.1995134  61.7290401  50.7544661  64.9096966
  62.8971386  50.7579184  65.8722544   7.2794169  67.4339533  32.6766515
   7.2737283  67.3775768  31.7211294   6.4628094  67.8831005  32.8949451
  77.5426435  39.3505239  37.4346781  76.7979479  39.0948105  36.8903685
  77.3417377  38.9920139  38.2991672  67.1015978  10.0427461  20.1546192
  66.1497927   9.9762821  20.2313209  67.4004364  10.2376521  21.0428429
   0.1189670  60.6138468   7.8495127   0.9808357  60.6909513   7.4402827
   0.1263311  61.2678051   8.5484558  15.1906049  14.5200574  50.0942373
  15.4124355  14.1088378  49.2588234  14.2694509  14.2996573  50.2325583
  54.9044895   7.7145410  35.4296565  54.6134329   7.1336037  34.7267818
  55.1812983   7.1234149  36.1297846  60.3747559   9.1957885  60.5306578
  59.6516323   9.5115387  59.9887896  60.3815699   9.7827959  61.2867069
  62.6001596  43.2236242  65.7586193  61.6999149  42.9257298  65.6280470
  62.5105143  44.0964365  66.1412382  68.9062214  48.2104969   3.8382795
  68.6291981  48.5582209   2.9905906  69.0152788  47.2714949   3.6879122
  70.7982683  55.9136915   7.2316009  70.8569098  56.7882681   6.8470079
  70.8284569  55.3197145   6.4815944  23.5092473   7.8545028  47.7053595
  24.2805195   7.3354304  47.9332447  23.1702065   8.1615561  48.5461903
  65.6325054  31.5903139  36.6744471  66.0249138  30.8621311  36.1927867
  65.1419497  32.0782924  36.0130358  41.3399506  58.0021572  15.6056738
  40.9985781  58.5424471  14.8930848  42.2541523  58.2717657  15.6938672
  67.7989292  30.3998756  38.9933610  67.5382137  29.8156643  38.2813549
  68.2542181  31.1202908  38.5575294  68.1078577  40.8336639  28.7117839
  67.1669579  40.7707357  28.8760424  68.3110905  40.0612307  28.1842685
  15.4831374  47.1430826  15.9339201  15.3661156  48.0417871  16.2419307
  16.1119711  47.2159338  15.2159417  22.2211957  15.5965936  30.4900932
  21.9896936  16.5048206  30.6844187  21.4617515  15.2509439  30.0210476
  46.1781836  60.2006578  65.8168268  45.9569311  60.1356554  64.8878193
  47.1309376  60.2918100  65.8303213  75.4123974  29.3320179  28.1900287
  76.2981081  29.0064001  28.3504057  75.5324936  30.2571058  27.9755020
  55.9510612  75.9801054   5.4298538  56.3097954  76.0832357   4.5484325
  56.2980032  76.7264938   5.9184927  65.0618172  44.7392607  44.1436625
  64.9363756  45.5382061  44.6556997  65.4677486  44.1244125  44.7547388
  76.1757231  34.6783662  55.8396578  75.2300930  34.6749640  55.9879923
  76.4370108  33.7628722  55.9388161  58.2315445   8.0618763  26.1683726
  58.3418274   8.9988726  26.3299513  59.1239214   7.7279747  26.0767126
  46.1973238  76.8503809   5.1105082  45.8155251  77.0358944   4.2525771
  45.8480930  77.5349331   5.6811738  75.7621384  45.8122063  53.6895466
  74.8105240  45.7209969  53.6411715  75.9385490  46.6791058  53.3240414
  57.8639746   9.5941591  22.7523828  58.4982252  10.2955973  22.6042604
  57.0250797  10.0455701  22.8457260  71.0159349  47.0246840  38.6098313
  71.4156151  47.6244688  39.2397094  70.2898312  47.5218248  38.2331991
  57.5306320   6.5901834  56.0954380  58.4493971   6.8582463  56.0797977
  57.2460938   6.6569680  55.1839495  63.5870123  37.1486020  37.2982335
  62.7988482  36.8775034  37.7689075  64.3091917  36.7887259  37.8131843
  59.2902994  30.8849859  39.4268918  60.2175617  30.8078551  39.6515417
  58.8404751  30.3469062  40.0783205  24.4377947  34.2197585  13.4721076
  25.3933597  34.1639161  13.4751344  24.2523837  35.1563120  13.5408270
  61.8710995  45.9631777  64.4789267  62.3586655  46.7389107  64.2018843
  62.3606873  45.6282091  65.2301455   8.7748730  30.4534435  26.3542914
   9.1089904  30.6719041  27.2242761   9.1112334  31.1474466  25.7873225
  52.6790667   3.3358338  41.8077087  52.7461338   4.1698921  42.2725534
  53.1367397   2.7108079  42.3699474  52.0359230  47.9891396  43.2250452
  52.1256113  48.8752556  43.5757351  51.1526775  47.7199697  43.4773397
  27.2311044  15.1653659   3.6084592  27.7043200  14.4127011   3.9631313
  27.6884556  15.3736186   2.7937856  58.7088108  60.0121737  50.2570868
  58.7574005  60.6029654  49.5055294  57.9840612  59.4217730  50.0511646
  61.4451933  39.9770689  60.6859779  61.6060066  39.0442371  60.5438709
  61.4207840  40.0735998  61.6379881  52.7767849  58.8792467  43.1796598
  53.3950329  59.0034437  42.4595356  53.1052780  58.1115770  43.6476469
  75.9332609   7.7657014  59.1586113  76.4723539   7.0464510  58.8295412
  75.6118298   7.4561048  60.0054073   9.9329495   5.1903218   6.4456743
   9.2676675   4.5164835   6.3057715  10.4803312   5.1529694   5.6613213
  54.9976873  40.3486061  48.2107925  55.3213453  41.0603905  48.7629175
  54.1168547  40.6240511  47.9568195  69.2851210  74.4888401  25.8198118
  68.5476017  74.2966986  25.2406907  69.4473886  73.6664200  26.2819028
  22.0565128  65.7829428   8.2990885  22.2841787  66.2831163   9.0828156
  21.3188338  65.2363014   8.5697174   5.4682273  30.9417224  20.9361601
   4.7057664  30.7472396  20.3911281   5.6996542  31.8429375  20.7114673
  15.9487331  35.5820870  44.2692137  15.7771409  34.9514079  44.9685240
  15.1785183  35.5278563  43.7034750  76.0428190  53.7657976  59.5774412
  76.4202166  53.7677574  58.6977816  75.1054525  53.8985538  59.4362068
  68.3979082  53.4618759  43.4666586  69.2905998  53.8048506  43.4253836
  68.3915377  52.9035664  44.2441416  70.8377934  14.8789907  48.0770445
  69.9832582  15.2915800  47.9514551  71.1804628  15.2766860  48.8774490
  77.1920702  31.7274333  67.5796378  77.4749586  32.5762607  67.2394887
  77.2337505  31.1408092  66.8244113  67.3516893  46.4393854  53.6834621
  66.8690300  47.2293377  53.4400558  67.4391365  45.9504700  52.8652048
   5.6031132  71.1305141   0.5598130   6.2709618  70.6245232   0.0970126
   6.0544330  71.4740610   1.3308622  48.6851215  67.7511120  25.4097939
  49.2225933  68.5426807  25.3819060  47.8495502  68.0152702  25.0247359
  37.5553552   9.7768500   0.0390969  36.7255823   9.7794583   0.5162774
  37.9638044   8.9435008   0.2734624  64.0756655  30.4480648  57.2549295
  64.3555117  29.7189665  56.7014551  63.3261585  30.8247995  56.7939091
  43.7567616  58.2995939   5.3972924  43.6391306  57.3503160   5.3616184
  42.9907274  58.6180830   5.8747721  15.5227995  43.8282585  47.4617958
  15.9220481  43.6901712  48.3207273  16.0390007  44.5316124  47.0680141
  13.4734428   0.0042307   8.2760936  13.3701372   0.5643252   7.5067735
  14.1823292   0.4105400   8.7747169  22.8038740  10.5950308  42.3372316
  22.7470589  10.3754044  41.4073038  22.6653075  11.5416265  42.3686695
  79.3543005  40.0545168  56.1764956  78.5663366  39.8505902  56.6802359
  79.2314959  39.5976973  55.3443480  52.1640396  32.4292612   2.2295164
  51.4424610  32.1303868   2.7828956  52.4703503  31.6376400   1.7870885
  69.2862606  67.0845795  26.2506437  69.3235350  66.4095926  26.9283152
  69.8900843  66.7782688  25.5740285  24.4129896   1.5235418  45.4514790
  24.4972086   1.4333199  46.4006853  23.4922147   1.7452411  45.3127193
  65.6463957  56.8776226  45.4107285  66.5056467  56.5540695  45.6813526
  65.1572227  56.9708490  46.2281895  81.8177128  41.8326712  59.2902756
  81.2420654  42.4195814  58.7999725  82.0679855  41.1591721  58.6578274
  74.4610834  58.3270502  66.2093973  73.9285088  58.0415249  65.4670572
  74.7656202  57.5140190  66.6124678  82.3330975  50.1687908  52.6316118
  81.5316963  50.6681585  52.7885389  82.4466896  49.6431398  53.4234571
  69.2609644   9.6521282   4.9747625  68.3423519   9.8766237   5.1230347
  69.4584990   8.9970720   5.6441748  17.9820073  68.5177183  32.5217581
  18.6616373  67.8461409  32.4641585  18.3219039  69.2474842  32.0039296
   7.4685031  56.6329384  20.3427577   6.8749297  57.0036936  20.9957862
   7.0501864  56.8236351  19.5031869  76.4614773  17.7791250  41.7249489
  76.2955999  17.4151635  40.8553219  77.2125387  17.2842622  42.0524311
  16.5331662  58.6864328  18.1064939  17.1079206  57.9799128  18.4009695
  16.1782277  58.3751297  17.2738230  55.7141590  63.9803362  62.3754025
  55.9163761  63.4668446  61.5933132  56.4282703  63.7842846  62.9819012
   8.1897151  23.9363575  40.2904606   7.8298026  24.2439938  41.1223602
   9.1087639  23.7492394  40.4816866  69.3625212  26.6178775  38.9136553
  68.4686804  26.8020773  39.2023659  69.2652178  25.9251237  38.2603121
  12.0723164   1.7537259  52.6273394  12.5066936   1.9274536  51.7922544
  11.4904022   1.0157546  52.4456596  56.9270372  20.3471351  19.9387693
  57.4404097  20.5560088  20.7191873  57.4896193  20.6007576  19.2070496
  21.1149549  23.9880896  30.3852010  20.4294205  24.2252541  29.7606778
  21.1473417  24.7241473  30.9962678  48.3629465  16.9866788   1.7852642
  48.8944483  16.7519307   2.5459415  48.9991570  17.2529054   1.1214960
  23.6394000  60.4591465  25.8387923  24.1936421  59.9092865  26.3925958
  22.7989340  60.0018406  25.8118987  18.1949949  50.7850599  55.3257370
  18.8705468  50.1134396  55.4194736  17.8476059  50.9004307  56.2101793
   7.2951406  44.4211340  61.3609171   7.6917416  44.4959259  62.2288704
   6.3732362  44.2308235  61.5344286  67.8885126  22.4675131  53.5061550
  67.5824261  22.7643156  54.3631554  67.2699261  22.8514647  52.8847361
  71.2082911  46.6862202  47.9680109  71.5150356  45.9256887  47.4743223
  71.9321060  46.8966341  48.5579729  81.8219471  70.9362745  66.2650490
  82.6279068  70.4402971  66.4087868  81.6048145  70.7793665  65.3461027
  59.8714256  49.5430756  42.6966906  59.6056557  50.1996851  42.0529032
  60.6982088  49.8732901  43.0482817  29.1451859   3.3124855   3.0933097
  28.8552999   4.2012867   3.2988110  28.3801818   2.8970614   2.6952851
  59.7261238  51.8792582  44.8276949  60.0589514  52.7052879  45.1785946
  60.1005363  51.8243504  43.9484739  63.1362581  39.0905571  53.9977312
  63.5467291  39.8805642  54.3493462  62.6850510  38.7013721  54.7468519
  28.4557629  71.9760275  19.5859098  27.6866007  71.5378714  19.9501073
  28.1178641  72.7991867  19.2331100  77.0337963  49.0260220  49.3865061
  77.9462719  49.0787554  49.6708298  77.0004749  48.2467556  48.8316488
  64.5416307  68.6775875  44.3892241  64.6741581  69.6191692  44.4991922
  63.7288570  68.4935045  44.8601198  32.2448945   4.5747936  21.7371106
  32.9860377   4.0357101  21.4608383  32.0541286   4.2812410  22.6279902
   6.6309702  43.6189461  12.7090919   7.5549549  43.5941935  12.9578304
   6.3769227  42.6986980  12.6395321  74.7147369  12.8509438  18.9185691
  75.5121279  13.1690371  19.3419051  74.2067099  12.4586666  19.6286821
   0.7838137  29.3599439  18.5701895  -0.1209506  29.6548104  18.4668124
   0.7680923  28.8084245  19.3523741   8.2228625  52.2013187  58.5652447
   7.9837835  52.1069145  59.4872904   7.7394491  51.5053988  58.1200027
  41.3022757  19.9400663  15.8154106  41.3766146  20.6791997  16.4190567
  42.1414137  19.4854534  15.8889294  42.4548435  35.4793811  21.4768815
  42.6863670  34.6617103  21.0363817  43.1525421  35.6115317  22.1187425
  20.0878477  69.5424747  16.8475008  20.2571821  70.3319120  16.3333595
  20.0555539  68.8376856  16.2006104  53.5238171  67.8341436  47.9570580
  53.3802748  66.9320726  47.6708889  53.8778305  68.2766819  47.1856546
   7.6451021  35.7950640  23.9575839   6.8897587  35.2086496  23.9151001
   7.2961873  36.6091442  24.3205786  63.4391642   8.7139809   6.5596020
  63.7502480   9.2699277   7.2740132  64.2342806   8.3254141   6.1948502
  14.2782986  40.9621954  32.1795058  14.4591486  40.9418631  31.2397647
  13.5178137  41.5372086  32.2646713  19.2515409  22.8960562   1.0694420
  18.9140439  22.5531507   0.2419505  18.8471687  22.3451805   1.7397025
   4.1258138  32.9956508  55.9596539   3.2200295  32.7713799  56.1729383
   4.5061934  32.1775389  55.6399059  71.7515945  27.3636699  55.1611853
  71.1936235  27.3698711  55.9389114  72.6403236  27.4605942  55.5032349
  57.1763229  18.6987138  16.2850726  56.2554455  18.5092020  16.4647925
  57.6293945  17.8741896  16.4614820  79.6723509  14.8658907  46.8830681
  79.4229126  15.1815844  47.7516031  80.6235886  14.9688065  46.8548870
  41.7669964  59.0756989  50.4764843  41.7436981  58.1373692  50.2888060
  42.6865816  59.2586613  50.6691551  11.9350564  74.5734358  30.7595992
  11.2141335  73.9939785  30.5131626  12.0967484  75.1006556  29.9772143
  25.3079104  24.2583704  49.5182657  25.2169108  25.1276159  49.1279268
  24.4428539  24.0666962  49.8804379   8.4580028  73.1026649  32.5139546
   8.0477536  72.9605532  33.3670282   9.2992163  72.6499557  32.5743389
  70.7626200  49.5219564  27.2984290  70.7714939  50.4399967  27.0275903
  71.0270262  49.0387249  26.5156078  65.5306435  13.7280703  37.0181656
  64.7625589  13.3971095  36.5526056  66.2223244  13.7459862  36.3567352
  17.6835740  37.1312451   6.3897741  17.1611631  37.9314709   6.3353801
  17.6476073  36.8840814   7.3138136  18.2587290  17.9459417  27.7636528
  17.6944780  17.6577985  28.4811664  17.6910472  17.9343319  26.9930458
  64.3857145  76.7924738  65.2952719  64.0486050  76.8811178  66.1867476
  63.8212872  76.1340523  64.8901367  69.8464918  60.0834703  32.7446532
  69.8770809  59.3455935  32.1356893  68.9718771  60.4544210  32.6277208
  81.0942268  33.1873941  30.8236098  81.6457462  33.1337333  31.6041088
  80.1995564  33.1221843  31.1575866  23.8938498  44.9564981  39.0681624
  23.6542296  44.0350437  39.1668487  24.8313498  44.9820185  39.2596626
   6.9642907  73.5822630  28.1310630   7.2392339  74.4547510  28.4128499
   6.6742659  73.1512403  28.9350128  34.9911571  26.6543794  59.0780401
  35.0521517  25.7036090  59.1704893  34.3739438  26.7859340  58.3583355
  63.0408192  36.1148381   2.1202722  62.2576571  36.4387774   2.5651941
  62.7212381  35.4125857   1.5537554  58.5478258  54.5846367  57.8645182
  57.6189184  54.5907593  57.6335955  58.9243221  55.3070927  57.3619843
   6.3955694  20.2265048  10.6868422   6.3524818  20.3789592  11.6308403
   6.1707509  21.0714412  10.2972639  78.4596348  58.3549452  46.7090607
  77.5740194  58.0421686  46.8936729  79.0196800  57.8503609  47.2989559
  63.2434464  14.5895541   3.5069111  63.4288979  15.5099630   3.6931551
  63.6849308  14.1097128   4.2076802  61.5648556  61.7094898  39.3493724
  61.6764784  61.9884443  38.4405518  61.7362928  62.4977398  39.8646379
  63.8186455  27.8792810  36.8995023  63.7350273  28.7042832  37.3776340
  63.1393290  27.9225540  36.2265348  -0.0233684  37.2618794  66.2362337
  -0.0997481  38.1920671  66.0237503   0.4672208  37.2433996  67.0579433
  78.6090612  33.8167620  66.3224697  78.9199352  33.5612321  65.4539728
  79.3693590  34.2222929  66.7392778  64.3726683  71.6165924  44.1107130
  63.5493565  72.1037722  44.0783596  64.8667860  72.0281315  44.8197365
  69.8945332   2.6554027   0.2283877  70.4245186   2.0245203   0.7155564
  69.6600342   2.1981861  -0.5791990  50.5095387  21.9874549  58.4256315
  50.1717377  22.1791816  57.5507832  51.0118008  22.7665019  58.6644840
  58.6126041  29.8532057  63.2779837  58.4084272  29.9415612  64.2089701
  57.7610731  29.8849797  62.8419590  22.1013737  56.3541031  24.6719289
  21.9228101  56.0692263  23.7757182  22.7104187  55.6998539  25.0143552
  33.8480854  16.4231288  39.4242930  33.1673074  16.2661827  40.0786161
  33.8665938  15.6218600  38.9009786  20.4116988  54.5473385  17.1179342
  20.7271814  54.5245171  16.2145066  19.7542214  53.8529205  17.1596503
  12.9392374  24.7576571  11.3712192  13.8748860  24.5559001  11.3618231
  12.7510071  25.0624013  10.4835629  72.3141146  60.9910440  66.1818552
  72.5446177  60.2698660  66.7675161  73.0761671  61.0888910  65.6109571
  21.7454004  45.9493017  31.0006356  21.8273878  46.6084099  31.6898990
  22.4285960  46.1762094  30.3697705  25.1159096   5.5577725   9.0630722
  24.1754007   5.4663926   8.9103472  25.4670405   4.6775210   8.9285529
  74.2574549  66.1514235  52.5546741  73.4028482  66.0969734  52.9823637
  74.7680330  65.4441786  52.9488230  35.3258705   4.3504480  47.4247646
  35.0824738   4.9163589  46.6921425  34.9512815   4.7798789  48.1938601
  30.3400445  75.8844423  66.9537115  29.9624658  75.9650898  66.0778332
  30.0835347  76.6912699  67.4003267  14.0307248  39.2469978   7.1634239
  14.6461999  39.6088552   7.8009820  13.9755511  39.9136257   6.4787376
  55.2760649  39.0560985  15.4045796  55.2489281  39.9709535  15.6848228
  54.3581915  38.7855935  15.3806913  10.5729830   9.5682651  18.3086669
  10.2279055  10.1961493  18.9434218   9.9853253   8.8154113  18.3727193
  11.1486828  49.6514416  21.6037416  12.0572519  49.8213863  21.8524432
  10.6886244  50.4661179  21.8059373  57.7330256  38.8395572  53.4277630
  56.8371487  38.7190104  53.7425709  58.2238865  38.1173658  53.8198471
  33.6551714  67.6528072  56.0596704  33.1083107  68.0890608  55.4063272
  34.4733524  67.4644423  55.5999660  63.0422163  62.8313923  44.2152834
  62.9841042  63.7183380  44.5705032  62.4071836  62.3274708  44.7242355
  50.4046154  20.4076242   1.2024947  50.4758501  20.1476932   0.2840216
  50.7022619  21.3172412   1.2177653   0.1847920  50.4527330  59.3677902
   0.9970775  50.8926916  59.6185112   0.4586593  49.7832870  58.7408400
  19.0432250  70.7118082  44.1426039  19.6741331  70.7118940  44.8624563
  18.6225533  69.8534727  44.1929150   8.8333815  52.6754570  46.1234045
   9.6913379  53.0996037  46.1390018   8.6403179  52.5596619  45.1930571
  13.5777164  52.8858185  50.3053284  13.8778377  53.7448502  50.0083017
  13.7449110  52.8864098  51.2478113  79.5870352  68.9880037  10.0781476
  78.8863993  68.8914919  10.7231498  79.2688274  68.5188675   9.3068576
  22.9700780   4.0757352   3.3938065  22.4775815   4.1776946   4.2082283
  23.7013960   4.6875557   3.4779525  58.5280085  42.9527140  43.1516171
  59.1143322  43.7069321  43.0915165  57.6490307  43.3276463  43.0963421
  82.5744820  67.5325155  38.1641603  82.5617409  67.3164415  39.0965676
  81.8305969  67.0546627  37.7973843  -0.2903330  33.6902571  40.3106022
   0.2831879  33.7944317  39.5513558   0.2394618  33.9814878  41.0527182
   8.1202632  44.6257448  24.3269920   8.9085704  45.1050091  24.5821548
   7.6533937  44.4774723  25.1493549  18.4971964  28.9178538  52.6589823
  17.8228760  29.3128395  52.1062517  18.1585705  29.0060782  53.5499287
  36.1514020  72.4731398  58.4803438  35.7998681  73.3387709  58.6885309
  35.6117558  72.1641541  57.7526474  73.0040169  61.4423132  61.9455099
  73.3233213  60.5651093  61.7338705  73.4151363  61.6509247  62.7843761
  47.1825218  50.7486343  40.5470181  46.2585831  50.5942535  40.3501892
  47.1792555  51.5045452  41.1342335  49.8768902  64.7808886  12.8523338
  50.6604004  65.3254843  12.7764523  49.8779726  64.2475986  12.0574534
  71.7591000  12.2092998  44.3575239  70.8317232  12.1225488  44.1368818
  71.7695618  12.3230314  45.3078890  49.6048498  59.2330456   3.6094996
  50.4741240  59.1255331   3.9955601  49.0375042  58.6702442   4.1363829
  24.2466974  39.5385933  50.4018402  24.2508221  40.4932976  50.3328991
  24.1277814  39.2340064  49.5022202  26.0083246  62.4548769  58.8920975
  26.4321995  61.9748354  58.1806755  26.5385556  63.2448339  58.9972401
   2.0815304  66.8059540  22.4559641   1.4084283  67.2948885  21.9825673
   2.8593320  67.3618317  22.4084568  46.6504097  70.7710028  19.4784749
  46.6805267  70.1039219  20.1642776  46.9042540  70.3063440  18.6810517
  17.8988791  69.9230766  38.6428237  17.0886838  70.4327869  38.6459208
  17.8325307  69.3631315  39.4163179  73.6253071  64.0412951  44.0221071
  73.8717651  63.1196213  44.0995979  73.7152100  64.3886852  44.9095011
   3.1437606  30.5283070  42.7203369   2.8145316  31.3303256  43.1260538
   2.8020424  29.8237133  43.2707977  43.6474657  55.8595991  39.1188645
  43.7810755  55.5790234  38.2135153  43.7991428  56.8045473  39.1016293
  54.9479008  24.5028281  11.8375540  54.3463516  24.2499113  12.5378430
  54.4719744  24.3067408  11.0305369  70.1389217  62.1403980  41.2820053
  69.2017126  61.9676495  41.3715887  70.2180386  63.0892467  41.3802767
  64.9426222  50.9918070  52.8719044  65.6931591  50.4693031  52.5892115
  65.2384710  51.8986511  52.7922392  55.2238989   2.9309404  18.5327065
  54.3723917   3.3600003  18.6168134  55.8497477   3.6519942  18.4646690
  52.3654795  60.4930115  11.3596332  51.6001368  60.5551291  10.7881272
  52.1095610  60.9611034  12.1543825   7.5838494  46.5107918  51.4613771
   7.4416310  46.9856501  52.2802305   8.4830523  46.7253733  51.2131405
  40.0353909  26.0267591  20.7880640  40.8230066  25.4836464  20.8184290
  39.6721625  25.9715486  21.6719460  31.4987874  64.3484163  39.2678952
  31.9318128  64.8227930  38.5581851  30.8607602  63.7875605  38.8267636
  53.6029339  53.6415195  56.6924810  52.9159451  54.2839098  56.8702793
  53.1364489  52.8828430  56.3417196  11.4117336  18.1429565  47.7686596
  10.5705404  18.5272408  47.5217772  11.9238317  18.8804722  48.1004095
  10.4495144  75.3359127  35.7173944  10.1731896  76.2158537  35.4613090
  10.7954526  74.9498224  34.9127245   3.5878620  32.5202608  49.8973036
   4.0843123  31.7408824  50.1469851   3.4570250  32.9941845  50.7185888
  33.4698057  42.5393248  65.8666897  33.1526589  42.5223160  66.7696619
  33.9634657  41.7248631  65.7708406  79.7269201  35.9283710  13.9657342
  80.5774403  35.4916382  14.0117073  79.4943237  35.9026480  13.0375803
  74.3337011  68.2343960  59.1055012  74.3359137  67.7788353  59.9473429
  75.2492094  68.4727907  58.9597654  64.3906069  27.8124714  32.1395445
  63.7351465  28.3978558  32.5189185  64.1595840  26.9456935  32.4735427
  67.1084166  62.0537996  45.3903246  67.8461504  61.9760370  44.7854042
  66.4355612  61.4809895  45.0223732  13.6797881  49.5777416  22.5620866
  13.8222241  48.8913536  23.2138634  14.2035711  49.3050814  21.8087339
  69.3596458  40.3325844  65.7006550  69.8676872  40.9078264  66.2726879
  68.6017609  40.8581495  65.4444695  19.8906314  71.5570116   4.9589923
  20.6957984  71.9645643   5.2781117  20.0793409  70.6186056   4.9629080
  52.1596670   3.7231642   0.4686086  52.4931335   2.8267324   0.5065734
  52.2985077   4.0679187   1.3507077  67.6966763   0.3605089  11.0964644
  68.0302143  -0.2566900  10.4452753  67.2261000   1.0180931  10.5842400
  71.0662603  23.3164096  49.2635202  70.9382057  22.3729587  49.3621922
  71.7050886  23.3986521  48.5554504   6.6157228  44.1460133  58.3653593
   6.6625971  43.5972500  59.1482353   5.6789899  44.2853928  58.2263041
  49.4760466  20.6265450  36.2215519  49.2193174  20.4725122  37.1307254
  50.0175905  21.4150786  36.2559032  29.8400474  15.1998961  14.2122734
  29.2859340  15.8305740  13.7524498  30.0693250  14.5520377  13.5459828
  56.6876078  25.2266240   4.3500030  56.9992733  26.1126018   4.1652361
  57.2215319  24.9340725   5.0886303  50.5096102  46.2173080  59.8712206
  51.1155653  46.9495010  59.9849653  50.3224087  45.9207582  60.7618666
  52.5452948  57.0947981   4.6046919  52.0273733  56.5895319   5.2313483
  52.0909977  56.9791603   3.7701410  63.1383371  39.4307351  42.3326731
  62.3991537  39.3218088  41.7343616  63.5810137  38.5820985  42.3234463
  28.3322549  55.0723743  16.5162492  27.8275967  55.1557875  15.7071805
  27.7185702  55.3198099  17.2079122  45.2426815  62.6330566  47.1287346
  45.3554916  63.4532404  47.6091576  44.2942476  62.5285053  47.0527315
  73.4511603  68.8671325   0.4422484  72.6557291  69.0440582  -0.0599612
  73.9897097  69.6491550   0.3212701  53.0370665  18.8790548  18.9351237
  53.5661077  18.6714184  18.1649065  52.7324772  18.0290043  19.2527246
  67.1599102  28.2224441  51.8929243  67.8268242  27.6078391  51.5867901
  67.4783659  29.0805531  51.6128063  75.5332327  48.4797430  52.7294254
  75.3148937  49.2494392  53.2549047  74.8470020  48.4420824  52.0631647
  82.5284100  47.5828600  61.2027073  81.6407871  47.9062891  61.0485983
  82.7479744  47.8948784  62.0805883  10.4116094  23.9035106  46.8644953
  10.5885172  23.3015299  46.1416149   9.5958608  23.5827827  47.2490978
   0.6558697  33.6334276  65.8599138   0.0351446  34.0151048  65.2392244
   0.3926658  32.7156591  65.9281397  18.0852938   6.1868715  62.4202490
  17.3744416   6.0156953  61.8024921  18.0216169   7.1239132  62.6049900
  54.4374084  49.3550825  60.1348400  55.0405693  50.0570679  60.3790617
  53.5901308  49.6363544  60.4801607  19.7008443  35.8664441  16.0034990
  19.5741963  35.2728915  15.2633047  19.1674042  35.4921651  16.7046332
  65.2918959  64.8440266  52.5976610  65.6978083  65.6823587  52.3770428
  64.5830250  64.7464705  51.9618845  65.2026939  50.1137352  46.8383741
  64.7507620  49.6973848  46.1044502  66.1292505  50.0772476  46.6008997
   2.6599225  64.0805387  51.0246468   3.3026582  63.5013390  50.6151962
   3.1856215  64.7470522  51.4669514  65.1319647  73.5375452  41.2237406
  64.8956013  74.1624451  41.9092083  64.3043900  73.3374310  40.7863522
  13.8408399  13.2198751  59.6966171  14.2208171  13.4154391  60.5531216
  14.0327656  13.9938235  59.1670847  80.3335190  58.6685324  40.8595705
  79.3812943  58.7245846  40.7798672  80.6390381  59.5641947  40.7157803
   4.3823564  12.2679257  42.6212645   3.4998447  11.9867539  42.3797131
   4.2459297  12.9257679  43.3030748   7.4087292  62.5281429   1.0386735
   7.4770802  62.9750252   0.1949567   7.6989818  63.1783962   1.6783258
  66.0711241  39.1304111  57.9419899  66.5870523  38.3259439  57.8882790
  65.5281639  39.0151143  58.7218142  45.2615786  56.3599873  52.2205305
  45.9686136  56.8561983  52.6329756  45.3056812  56.6036510  51.2959146
  43.8673449   5.0806093   7.0143598  43.8532495   6.0116374   6.7925018
  43.0025673   4.9102262   7.3876673  32.0177327  40.5574745   0.2483474
  31.1871682  40.9431006   0.5270730  32.6273216  41.2949942   0.2219258
  57.7767420  43.2975817  15.5829906  57.8859520  42.5335169  15.0168538
  58.1837749  43.0423737  16.4108944  22.5204492  50.6685877  45.6209850
  22.7375555  50.1419067  46.3902092  21.7702675  50.2217960  45.2287626
  81.5777111  58.0195332   8.1774336  82.0786095  58.8315487   8.1001818
  82.1048546  57.3680353   7.7149302  65.2501297  40.6325722  29.7243690
  65.1388264  41.3281488  29.0762854  65.6863642  41.0596752  30.4616046
  16.1328685  55.0500727  52.1465588  15.4747474  54.9646616  51.4567661
  16.4894986  54.1675949  52.2479343  15.7934701   6.6796458  57.0092010
  14.9457812   7.0201290  56.7233229  15.9774935   5.9587830  56.4069319
  36.6847157  48.4044647   1.7840065  35.8955097  48.8545275   1.4826229
  36.8706465  47.7623415   1.0989249  13.6354887  42.6575375   2.3484527
  12.7051198  42.8596497   2.2494794  13.7703264  41.8791819   1.8078810
  20.1989841   5.7548243  22.8401875  20.8143735   6.1391521  23.4645414
  19.7208488   6.5034020  22.4834657  29.9053383  43.8209105  41.0733318
  30.2438641  43.0948734  41.5972567  29.2094207  43.4306240  40.5445576
  12.4665308  61.2731886  14.8153794  13.0435944  61.2971115  15.5786991
  12.8570545  60.6150484  14.2404246   9.4379383  11.7626286  28.9497995
  10.0025749  12.0241451  29.6771431   8.5748810  12.1058977  29.1811681
  39.5956278   9.8603821   7.7893710  38.8005829   9.6703058   8.2873738
  39.9409676  10.6603384   8.1856579  16.5256870   4.8895472  55.0787354
  17.1069145   4.1923034  54.7749996  15.6745636   4.4639033  55.1819229
  74.6011591  31.2336278  60.2347040  73.8580847  31.3683915  59.6465635
  75.0024986  32.0988441  60.3156948   9.4031566  73.7751818  29.9701595
   8.9753795  73.4456396  30.7605004   8.9461052  74.5929384  29.7736740
  62.3006582  10.2813864  38.5974932  61.7878437  11.0790610  38.7277460
  61.9377708   9.6579397  39.2266655  50.4396391  69.6593761  51.2510729
  51.0428762  69.4495630  51.9640350  51.0003328  69.7434044  50.4798412
  73.7122631  46.2807798   8.5930687  74.4940901  46.8327284   8.5748744
  72.9819965  46.8987703   8.5609889  31.7124867  65.8011484  34.7081661
  32.1130228  65.3854752  35.4717207  32.2442126  66.5820217  34.5540881
  20.5942869  61.5354681  32.6944160  19.7104990  61.8326712  32.9107952
  20.9904885  62.2762632  32.2356367  65.0998545  25.4061508  36.3443303
  64.7121382  25.1968002  35.4945779  64.8273134  26.3074470  36.5164328
   6.4951503  54.2374611  22.5893188   6.9635218  53.8062382  23.3040977
   6.1077338  55.0149059  22.9914618  69.0733433   2.0920065   8.3361030
  68.2546139   2.2255950   7.8585386  69.6306133   2.8214535   8.0648345
  42.0956516  54.0902138  40.5917454  41.2231588  54.0824080  40.1981401
  42.5431871  54.8223925  40.1676464  37.0113230  71.6633987  48.2741451
  37.5414801  72.3814154  47.9282904  37.4284434  70.8720541  47.9335403
  48.1195068  16.6513252  14.4846094  49.0079308  16.7215967  14.8338950
  47.5843191  16.4051020  15.2390492  57.9689550  24.0968227  49.3556499
  57.4002504  24.6691227  49.8707008  58.4535789  23.5908484  50.0078440
  64.6398067   8.6979795  32.8473926  63.8572359   9.0419728  33.2780766
  64.5265865   8.9284438  31.9252753  19.5215261  15.0917494   9.0157849
  19.2009437  15.7268357   9.6561944  18.9938486  15.2530992   8.2336372
  61.9525433   7.2048008  14.1843402  62.2617865   7.6792520  13.4126568
  61.2010384   7.7116376  14.4918907  80.7683086  69.1232109  55.0029469
  81.3938427  69.8439646  55.0768089  80.9663582  68.5568094  55.7487345
  51.1473131   0.9978945  49.3441153  50.3468561   0.5393068  49.0887737
  50.9716654   1.9168973  49.1420889  76.8224812   0.8047849  17.1408606
  75.9518909   0.4387857  16.9848049  76.6574860   1.6264907  17.6032543
  64.3786955  76.2392044  34.7310877  63.7685585  76.0513258  34.0178800
  64.0132475  77.0120955  35.1615715  16.5022397  15.0717390  40.1584816
  16.4261603  15.8220375  40.7479715  15.6117857  14.9274182  39.8383355
  42.1751404  65.8585882  17.3284686  42.0695066  65.6528473  16.3996279
  41.2847996  65.8446264  17.6796436  16.1912024  59.9204302   2.1970089
  16.3545096  59.7895145   3.1310448  16.8059194  59.3300581   1.7613311
   4.6489912  62.1483231  50.2926826   4.6544981  61.3809395  50.8648062
   5.1401186  62.8118420  50.7772064  59.3718004  24.6731305  36.4698124
  60.0720787  24.0770650  36.7354250  59.0198755  25.0112343  37.2932601
  44.9912882  20.8373809  16.9267273  44.5302916  20.0602627  16.6108131
  44.3946648  21.5622282  16.7399991  26.5752172  48.9235449  38.9729905
  25.7600307  49.3800259  38.7648344  26.2966681  48.0517721  39.2534518
  22.7876449  61.8381691  43.0640936  22.9250455  62.7476263  43.3291197
  22.7180338  61.8745995  42.1101236  20.0710678  34.5912957  23.8363314
  19.2403662  34.1330481  23.9635181  20.1470923  34.6903729  22.8873134
  22.9789710  68.9218855  29.2198730  22.8378654  68.2092619  29.8431659
  23.0817580  69.7010994  29.7662139  15.7892168  19.1546047  28.3884454
  14.9181294  19.2250514  27.9979610  15.8014309  18.2865882  28.7917185
   3.9073893  12.8064597  46.7321968   4.3325686  13.5893881  46.3822317
   2.9871309  12.9040551  46.4875937  51.8343782  36.0947609   2.4967493
  50.9519005  35.7281113   2.4417023  52.1024799  36.2116051   1.5853204
  17.0381904  67.2132874  57.3025131  16.8771243  67.3029709  58.2417965
  17.9143667  66.8321753  57.2450686  71.3384867  31.3646746  60.6612253
  70.8057547  30.5704331  60.6211090  71.3887548  31.6654420  59.7538996
  79.8519850  15.4466987  14.5978653  79.1691303  16.1174405  14.5911872
  79.3861866  14.6325862  14.7888696  34.1275525  19.5530093  64.9418020
  34.6537995  19.4239223  65.7308722  34.7214365  19.9812448  64.3252420
  22.8868318  16.1950636  36.8926668  22.3164105  15.8956063  37.6006055
  22.4484730  16.9712520  36.5439439  35.4746318  73.8151360  55.3385687
  35.0415397  73.6723995  54.4969702  36.3377833  74.1590214  55.1084757
  78.5057783  19.8335350  60.8688211  78.4339809  19.7276235  61.8174314
  79.2219973  19.2508721  60.6162977  73.8209200  29.3966508  63.6344719
  72.9786968  28.9426208  63.6070967  74.2925262  28.9831734  64.3575573
  33.8036847  68.9087057  66.2456989  33.4450030  69.1781998  65.4001522
  33.5539436  69.6107483  66.8465328  64.7748327  31.6537404  64.8201561
  64.7601891  30.8919334  64.2407894  63.8630676  31.9425082  64.8592138
  12.0557451  65.4519033  35.7802987  11.3641620  64.9123144  35.3971672
  11.9628167  66.3016844  35.3496337  16.6795111  48.0503607   5.8878750
  16.3093030  48.7283850   5.3226668  16.0684514  47.3172665   5.8143163
  21.1806774  37.2032905  41.3516092  20.2513385  37.4274087  41.3033247
  21.1912704  36.2703776  41.5655994  27.2786546  72.5461960  57.5968838
  27.3242140  71.6979885  58.0381346  26.4471197  72.9221153  57.8857946
  62.7627611  74.3073130   6.3325751  62.1553230  74.3305063   7.0719737
  63.1124115  73.4162712   6.3377124  25.8930659   4.2666355  45.8488894
  25.7287621   4.5312342  44.9437761  26.6023183   3.6268762  45.7864094
  34.0509200   5.6127679  49.2716312  33.3893561   6.0935843  48.7742567
  33.6771393   5.5290902  50.1488543   7.3345584  70.5677557   7.0567453
   8.1307471  70.3079939   7.5202525   7.2869194  71.5163565   7.1755749
  58.4470844  20.2255988  25.9563565  58.5677767  20.9813929  26.5311956
  58.5128784  20.5847359  25.0715256  54.2450237  69.8573637  20.8396459
  54.2850542  69.8655462  21.7959738  53.3176708  69.7295952  20.6398273
  42.6326466   5.5591232  66.2573004  43.0715609   4.8347661  66.7032766
  42.7616787   6.3103163  66.8363476  45.9413910  68.6706161  49.2204666
  45.5801296  69.2456341  48.5458755  46.6098595  69.2008591  49.6543121
  82.6210022  46.7252684  41.2692022  82.8509426  47.4995136  41.7829132
  81.7812920  46.4397049  41.6291571  58.9197779  11.3451827  52.3497629
  59.4006920  10.5441439  52.5578260  59.5419455  12.0508122  52.5264645
  61.3121748  23.1650519  37.5982094  62.1169376  23.6015964  37.8775334
  61.0056400  22.7049828  38.3796215  81.2839317  18.7543952   3.7567455
  82.1538734  18.6288452   4.1357675  80.7678699  18.0220532   4.0937734
   0.2685354  45.3741121   2.0851101   0.7336199  45.4221916   1.2498756
   0.9562550  45.4479504   2.7467909  61.1109257  33.7047195  40.3121853
  61.5536356  32.8569221  40.2737284  61.1346340  33.9455128  41.2382984
  43.6777449  50.9494400   7.1134359  43.1455421  50.2155495   7.4206650
  43.2980108  51.7165661   7.5418693  15.9048402  49.7357941   3.8312799
  15.3639686  49.2233276   3.2303885  15.4346788  50.5637121   3.9299336
  82.2525597  26.6537380  31.2530279  82.6550579  26.4740419  30.4033613
  81.4657116  26.1088085  31.2653542  38.9498901  17.1144903  42.4461412
  38.7165356  17.8519166  41.8822432  39.8816013  16.9712961  42.2798824
   8.1162697  21.0649228  56.1419773   7.9218030  20.1287913  56.0964441
   8.7167883  21.1490512  56.8826103   1.7431472  15.5012798  61.9064951
   2.6599240  15.7609701  61.8153191   1.7235571  14.5876312  61.6217279
  61.1437654  73.5843658  28.3948946  60.8714914  73.6101770  27.4775982
  61.3969326  74.4855213  28.5950375  25.5297279   9.6459907  22.3937273
  25.3369045   8.9676809  23.0409884  26.3081288   9.3269485  21.9370699
  55.4241467  74.0815544  42.0964193  54.7819519  73.5966778  42.6147938
  55.2791977  73.7855959  41.1977386  61.7851353  72.1444750  35.4247499
  61.4254141  71.7651320  34.6229196  62.7232647  72.2241354  35.2521133
   9.6304184  20.7896972   2.2581716   8.7023038  20.5616832   2.2048257
   9.6474349  21.7437148   2.1820608  50.8511257  62.8127289  50.5342340
  51.0015249  63.1794024  49.6629333  49.9401808  62.5192976  50.5166340
   1.9939150  68.6053371  32.1126604   1.5532903  68.1339359  32.8196692
   1.3042942  68.7729263  31.4703465  42.0920277  62.4752617  63.3183861
  41.2165594  62.4189568  62.9354763  42.0347977  63.1996489  63.9414549
  74.5131874  23.3722448  28.6183453  73.6900902  23.2675862  28.1410718
  74.2462206  23.5463214  29.5209289  73.2542086  35.1340246  62.9733896
  72.9142952  34.2941308  62.6647377  72.9794264  35.7632780  62.3064804
  63.2017231  19.5882273  38.4052682  62.8675175  19.5909142  37.5083113
  64.1427231  19.4411230  38.3098125  42.3860168  60.5836916  21.6870189
  42.7278280  59.9587297  22.3264074  43.0486298  60.6066084  20.9966207
  77.1616793   0.3663164  64.0432692  77.7871466  -0.3570060  64.0005064
  76.5616083   0.2074593  63.3146334  47.7919817  11.0012054  35.5869246
  47.6427078  11.9392776  35.4687262  48.1648350  10.9268272  36.4653778
  65.8364153  15.5485249  26.6851187  66.2329865  15.5343413  27.5561857
  66.5549564  15.3311598  26.0912514  12.9000247  16.7589641  18.0315518
  12.0814896  16.6985989  17.5390184  12.6758564  17.2743070  18.8064075
   3.5586500  27.1497011  55.7316399   4.3812940  26.8730807  55.3279448
   3.1269744  26.3322663  55.9800100  59.5785284  26.4767861  34.5606589
  59.5104170  25.8527136  35.2832437  58.7440681  26.9456482  34.5696688
  71.0204697   1.4011909  16.6314375  70.8415794   0.6788737  16.0293686
  70.8950806   2.1897116  16.1034751  59.1890383  20.0054860  37.4418187
  58.7502337  19.1901565  37.1990848  60.1053905  19.7571886  37.5637937
  80.8595181   0.8372684  26.2275195  80.0212860   0.3849192  26.3222980
  80.6408691   1.6559985  25.7824278  57.0651960  13.6448216  43.0227804
  57.2813988  14.4230056  42.5090504  56.5563583  13.9791751  43.7613726
  69.4101381  36.9459486  11.3811541  70.2488041  36.7611623  10.9583962
  69.5343828  37.7990890  11.7970204  28.3014083  45.9624672  10.2693164
  28.2230711  45.9845686  11.2230492  29.2084122  46.2156105  10.0975680
   9.3639511   6.9294292  18.2786751   8.9601547   6.7804343  19.1336489
   9.8964548   6.1488152  18.1259871  73.2201385  14.5090795  66.4358282
  73.3061361  15.1755881  67.1174479  73.5041380  13.6977744  66.8569708
  77.7744150  12.9338264  63.0175257  78.0639315  12.0496523  62.7924776
  77.3649216  12.8401160  63.8776207  64.4993925  71.8749046  48.6276817
  64.4066763  71.9795895  49.5746136  64.3074799  72.7421474  48.2709074
  60.2744913  12.1338511  36.5317702  60.2468872  12.7717006  37.2449446
  60.0672579  11.2980640  36.9497943  80.9461975   1.5655504  29.9137855
  81.4756393   0.8195583  29.6319652  81.2078667   1.7153780  30.8222532
  34.8505855  -0.0087947   9.8328048  35.4511333   0.7196660   9.6749508
  34.4769406   0.1714487  10.6954372  70.3469563  14.0826631  42.1172190
  69.8021317  13.6400783  42.7680016  69.7221088  14.4543290  41.4945889
   9.0510678  49.9995947   6.0070181   9.7190803  50.5090570   5.5482823
   9.5212072  49.2372942   6.3448095  57.1723270   7.4309421  20.7846808
  57.1428442   8.2191408  21.3269949  56.7511797   6.7571175  21.3183713
  69.2809010  18.3607137  25.6226444  68.4473419  18.7058866  25.3028631
  69.6987581  17.9868722  24.8468423  69.8311138   5.3933018  34.1516566
  69.3292284   5.8054036  33.4484363  70.2372694   4.6302101  33.7406111
   0.9581661  33.2697725  50.0353670   1.8802416  33.0189252  50.0909138
   0.9165682  34.1253877  50.4624748  74.5382738  37.7976370  44.2216206
  75.0205135  37.0670104  43.8344955  73.8459778  37.3820996  44.7357082
  35.8303595  17.8806567  52.8365040  35.2083325  18.0350721  53.5474682
  36.6768360  17.7905154  53.2742119  71.1432648  41.9213009  63.6493397
  70.6576109  41.1148548  63.8226032  71.9924927  41.7843771  64.0692139
   5.9861761  69.0723419  44.8820639   6.7117298  69.4429541  44.3796206
   5.2929491  68.9354897  44.2363548  37.0790362  62.0539999  49.0912294
  37.0341229  62.4534273  49.9599504  37.8902292  61.5460014  49.1028357
  80.0026417  56.5459824  22.2360849  79.5863390  55.8987236  21.6668892
  80.7488251  56.0841084  22.6183319  62.2305489  21.9321680  35.3890753
  62.0448971  22.4480534  36.1736941  62.0809364  22.5379300  34.6631956
  23.3039498  53.3082390   8.5880655  22.7955294  52.7460003   9.1725534
  22.7650237  53.3848333   7.8007126  29.2137957  74.9541044  44.4484091
  29.6034884  75.7420921  44.8271561  28.3159280  75.2091599  44.2362595
  38.0563021  62.2501755  20.8810592  38.9486074  62.4322128  21.1758232
  38.1532145  61.5363693  20.2507257   0.8598590  76.7754364  55.3517628
   0.9340434  77.0284414  54.4315910   0.7177346  75.8291101  55.3292513
  56.5556049  48.9335346  51.3901663  56.0819340  49.3529320  50.6718540
  55.9002781  48.8279438  52.0798206  74.4089699   1.6665843  29.5439553
  74.3586493   0.8747751  30.0794339  74.2998600   2.3846731  30.1673937
  15.6545734  30.2817321  48.8799953  16.0957980  29.5291495  48.4860802
  16.2532115  30.5785942  49.5653677  72.7999973  13.3728898  57.9176998
  71.9899893  13.0706000  57.5069237  73.3113956  12.5753641  58.0542946
  32.0345163  62.7276945  54.8437214  32.1732497  62.2502995  54.0257454
  32.3806930  63.6033535  54.6716499  78.1762123  16.3384998  57.2736788
  77.5777817  16.9285643  57.7318668  78.7047958  15.9463573  57.9687023
  61.8650103   2.1972068  44.5082331  62.3850346   1.4444254  44.7895288
  62.0749903   2.8834873  45.1416063  44.4836998  65.8146095  26.2982583
  43.6309862  65.4028940  26.1582470  44.9621534  65.6573296  25.4842687
  12.5492871  15.7861936  30.4929733  13.4637260  15.9056330  30.2365232
  12.5924385  15.4849458  31.4005089  49.1931057  62.6133060  37.5359941
  49.5763969  62.1770000  36.7751050  49.2408133  61.9613266  38.2351923
  65.2017879  39.8429561  47.9961395  64.6183205  40.3972721  47.4779415
  66.0738325  40.0153828  47.6411200  37.9767084  68.5992527  52.1680260
  38.0728126  69.2152977  51.4417458  38.8721704  68.4376907  52.4651432
  78.8388348   0.8434079  52.2472715  79.5046377   0.4482874  51.6844034
  78.5010338   0.1140288  52.7670097  46.6385317  16.4570928  16.8819070
  46.7159081  15.9314275  17.6780999  45.7791138  16.2294734  16.5271986
  58.9144611   8.7616223  41.0805559  58.9591074   8.0837739  41.7549181
  59.7517204   9.2208093  41.1467171  33.5874569  77.4798730  37.9533648
  33.0417453  78.2310672  38.1860375  33.5691797  76.9208100  38.7301183
   0.1683935   4.5851243  25.5238485   0.9337367   4.5996189  24.9491572
   0.4240257   4.0147832  26.2488294  16.6013265  65.0125170  17.1682858
  16.7749453  65.2662373  18.0747688  15.6558943  65.1216412  17.0659089
  41.3101530   9.0209389  35.6584239  40.9001350   8.6921591  34.8584127
  41.5333509   8.2332253  36.1543274  49.6418571   6.5554720  49.8052549
  49.5368528   5.9272522  50.5197763  49.7788763   7.3955429  50.2431345
  77.2334576   5.3869665  46.2024069  77.3764229   5.0018585  47.0669794
  78.1044674   5.4170090  45.8065844  39.4348669  65.6541491  16.9634390
  38.7443304  65.0612354  16.6670477  39.6131110  65.3830576  17.8639770
   7.0139551   4.7321498  64.0055895   7.6673281   4.2702788  64.5309544
   6.1738253   4.4004112  64.3223906  50.2125740   6.4431715  22.1216559
  50.1125050   7.3650759  22.3589540  50.3508425   5.9947526  22.9559422
  66.9529867  16.5156412  18.7861776  67.3789740  15.9675360  18.1271291
  66.2052250  15.9966350  19.0823519  82.0153046  15.3167176  50.0746679
  81.8181705  14.5179820  49.5853901  81.1764526  15.7737708  50.1350880
   1.7363191  52.9874420  65.4794788   2.0165047  52.3676300  66.1529446
   1.6335684  52.4543190  64.6911573  -0.0097499  12.2770345  60.8830690
   0.1060548  12.4000847  61.8252373   0.4886594  11.4849758  60.6819201
  78.2491970  41.9012499  31.8579531  78.9970016  41.7408323  32.4335313
  77.7472353  42.5845337  32.3022366  55.1784897  17.9091752  65.1085424
  54.7523212  17.9242373  65.9655046  54.4637442  17.7663720  64.4880772
  72.1483994  37.8925872  17.8089619  72.0265675  38.1377649  18.7261736
  72.8630257  38.4518719  17.5044322  69.2856741  16.3362455  44.6404791
  69.8417330  15.5699897  44.7814703  69.8973846  17.0711148  44.5956993
  32.3778057   6.7761195  20.2965617  32.3990011   6.0237557  20.8879399
  32.3985505   6.3923490  19.4199073   1.6425894  23.2285666  58.3180904
   2.1945062  23.5476995  57.6041079   1.8351135  22.2923422  58.3695459
  44.5568371  21.5290165  61.5151119  45.2199364  20.8461547  61.4139700
  44.9079752  22.1051550  62.1940804  67.3079967  13.7569487  34.8891306
  66.9691563  13.9737451  34.0205598  68.2533169  13.8889945  34.8172569
  16.7829669  18.8433158  18.9187920  16.7310786  18.1687152  18.2417011
  17.6714981  19.1911161  18.8427770  49.2107773   5.5879378  37.2445965
  49.9445915   5.1945150  37.7167916  49.2496443   6.5167803  37.4725723
  28.4565258  25.7479572  39.1154552  27.7214146  26.0886216  39.6251512
  28.0493784  25.1986599  38.4455776   9.5636171  39.8229957  34.1408634
  10.4707694  40.1267290  34.1733313   9.1430140  40.2442646  34.8904347
  34.0599632  44.9542046  24.4404078  34.4179606  44.8805952  23.5557342
  34.8254085  45.0952673  24.9975681  45.9884977  50.6006241  19.2765677
  45.8673954  50.4748106  18.3354318  46.9233656  50.4529953  19.4196081
  63.2677412  45.6788588   5.2984273  63.5615826  45.0810194   5.9857953
  63.0695820  45.1098204   4.5546806   7.1412081  43.6886406   0.7287723
   7.7606845  43.0981827   1.1575390   7.2719395  44.5306826   1.1647800
  36.5528345  14.4353342  54.4240570  36.3063002  14.5251250  53.5035181
  36.0029078  15.0707567  54.8823690  66.7966270   7.7122808  64.4819975
  67.1137619   7.0613897  65.1080990  65.8499384   7.5740933  64.4516850
  66.2849855  72.2794914  46.3019085  67.2248316  72.1911573  46.1434412
  66.1231279  71.7509222  47.0833492  66.3241005  37.7307749  45.5379629
  67.0205355  37.5656176  46.1735249  65.5798531  37.2227049  45.8607435
  28.3202887  63.9400053  50.9701777  27.7766109  64.3735504  51.6279650
  28.9291143  63.4038591  51.4782286  35.0362110  65.1702929  31.3760090
  35.9849000  65.0657940  31.3031912  34.8122597  64.7518492  32.2072601
  54.8431730  31.9751763  46.3111973  54.6664238  31.4278507  47.0763302
  55.5958557  31.5609694  45.8891392  60.5508709  71.1588335  33.2060862
  60.3777981  71.4531851  32.3118615  60.3283215  70.2278900  33.1990981
  55.9129715  58.6022329  60.1521015  56.5536928  58.6438322  59.4421911
  55.6479645  57.6829386  60.1820040  71.5443516  33.3727670  38.3397222
  71.7416382  32.4498487  38.1799412  72.3985958  33.7778854  38.4893084
  68.4366322   3.7025589  42.1439886  68.3236170   3.3965147  43.0438757
  69.1621971   3.1798464  41.8025732  42.1686316   5.0838745  48.4809017
  41.6072416   5.7712442  48.8395071  42.9596090   5.1156098  49.0190220
   1.9903332  11.5668607  39.4957137   1.4483811  11.0167503  38.9301181
   2.8113002  11.0828698  39.5851469  51.0289574  61.5341425  60.9119749
  50.9803867  60.6117773  60.6607580  50.5022907  61.5933371  61.7090607
  57.9884434   0.1121171  55.6920719  57.2147036   0.6489283  55.5206490
  57.8428984  -0.2449828  56.5681601  58.2497406  19.8163342  34.3240333
  58.3727360  19.5186687  35.2254200  58.2272005  20.7711244  34.3880677
  57.1499014  31.5569758  50.9572840  56.6131496  30.8858085  51.3787794
  57.2840023  32.2179103  51.6365576  22.6203561   3.5260433  38.5140824
  23.1048799   4.3208653  38.2910895  23.1345129   3.1199521  39.2119122
  37.4659215  18.9616824  66.9015573  37.3854457  19.9130489  66.8333242
  38.1623565  18.8256885  67.5439902  78.0336905   7.2366256  28.5174108
  78.9606094   7.0008683  28.4791064  77.6662636   6.6561705  29.1839719
  64.3300343  30.5057001  28.0406523  64.2104959  30.7836533  28.9487743
  63.4540749  30.2507782  27.7509212   8.4853679  49.6030045  18.8060522
   8.2234967  48.7802553  18.3928490   9.4363004  49.5356989  18.8922441
  63.0918074  35.2125454  54.0030670  62.4765205  35.8656979  54.3362999
  63.6253834  35.6887650  53.3668709  67.7446890  27.1550393  57.9240990
  67.2134686  27.7330613  58.4717560  67.1156025  26.7380500  57.3353767
  80.2971077  22.3158360  24.5145369  81.0122967  22.9112172  24.2903352
  80.6121349  21.4520788  24.2482352  79.6556902  21.2235022   3.8739946
  79.1680479  20.9419394   3.0999407  80.1486397  20.4479122   4.1417462
  72.4578476   3.5238722  31.2304497  73.0490160   3.9475727  31.8527293
  71.6040993   3.5386556  31.6630292  70.6773281  54.9874926  26.8804336
  70.2061605  54.8357391  26.0611629  71.4111900  55.5504513  26.6339445
   2.1186489  13.4442103  13.3051133   2.2046128  13.2025445  12.3829210
   2.1917607  12.6150870  13.7778091  47.2579575  26.3072824  63.3361578
  47.3906374  27.1695852  62.9423761  47.9497814  26.2352538  63.9937401
  66.5164995  25.8355927  45.9190035  66.8456221  26.3983965  45.2181768
  66.3447618  24.9964905  45.4916334  48.3935833  34.2273521  49.2587709
  48.7351513  34.2091489  48.3647728  47.7449656  33.5237932  49.2817259
  67.9740429  39.8801661  47.9563570  68.6683321  40.0907660  47.3319769
  68.3111191  39.1293430  48.4451056  21.0296249  36.5571070  18.4819961
  21.5082479  37.3776960  18.3645821  20.4905629  36.4795065  17.6948369
  51.7514944   2.5121027  18.2738185  52.4885225   2.9392257  18.7103868
  52.1413231   2.0787023  17.5145876  69.7230196  34.2682290  13.6168516
  70.4711437  33.6716485  13.6420178  70.0924015  35.1036668  13.3307862
  74.7591972  19.5829201  43.3044481  75.5157328  19.1477132  42.9114008
  74.8039675  19.3500185  44.2318010  37.2370434  23.6569881  61.7840528
  38.0658674  23.8542891  61.3477564  36.9162679  22.8697109  61.3441277
  68.0677843  14.9427426  24.9650121  68.7724781  14.6077299  24.4105697
  68.5168505  15.3183866  25.7222867  67.3021555  36.0809159  61.9649029
  66.6195440  35.6848264  62.5065565  66.8373871  36.7167115  61.4208603
  80.6637478  51.0469484  14.6392179  80.6932354  51.9218826  15.0263333
  79.7773600  50.9710884  14.2859650  14.7292495  34.3643951  40.0601292
  14.6397960  34.0262246  40.9511232  14.5491886  35.3010869  40.1402569
  81.7519093  39.0432501  20.2551770  81.9682121  38.1682944  19.9328470
  81.4306355  38.8980150  21.1450791  58.9602709   2.4412125  28.3764482
  58.4558344   2.2985533  29.1773391  58.9502001   3.3903542  28.2529163
  26.9633412  64.7335482  38.6990547  27.4896717  65.5330324  38.6938071
  26.4096332  64.8062086  37.9216480  43.4568357  68.5885382  56.1585855
  43.9092016  69.3999147  56.3893747  42.6572657  68.8769627  55.7184362
  38.9769363  31.0596871  54.1622829  38.1542253  31.4214921  54.4916439
  38.8016844  30.8657622  53.2414627  56.6545391   3.0144864   8.9616352
  56.6189337   2.1731298   9.4166994  55.7566786   3.3443320   8.9974356
  27.9676461  23.7291384  49.2311668  28.1421399  23.4503961  48.3322334
  27.0128989  23.7641954  49.2900038  12.2409022  26.2055516  29.1601157
  11.5889132  26.3910913  28.4843087  12.1233368  26.9036055  29.8044229
   9.0014285  28.4628987  34.6892595   8.6478615  28.9833450  35.4106164
   8.2632434  27.9296613  34.3943477  68.1447077  44.2892408  17.6704895
  68.5978842  45.0676012  17.9945457  68.3765316  43.6003971  18.2933760
  52.8544283  45.5296087  44.7956467  53.1838560  44.6945906  44.4633055
  53.0114460  46.1495686  44.0834427  59.4109678  35.1845837  52.6892948
  59.3798780  34.8240232  51.8031454  58.5750914  34.9307704  53.0806065
  48.4799337  75.6089878  42.6926470  47.8214550  75.1076269  42.2117281
  48.2641554  75.4657364  43.6141443  50.5611372   0.6697523  28.5488558
  51.4840317   0.6853788  28.8023400  50.4386330  -0.1886099  28.1433439
  63.4346199  48.1236982  45.5007410  63.0534649  47.3053074  45.1826429
  63.6182833  47.9588223  46.4255714  32.7068114  67.9665709  48.9895010
  32.1054459  68.6432076  49.3005562  32.1642661  67.3956060  48.4455585
  14.6623075  28.6260509  63.0122709  15.5990124  28.7295270  63.1799269
  14.5715392  27.7225137  62.7095938  68.9586687  19.2004168  35.7972193
  68.7950182  19.7590506  36.5570760  69.9031734  19.0458083  35.8125830
   0.6762878  11.6455066  56.1625671   1.2113264  11.6770709  55.3694916
   1.0953689  12.2658277  56.7590618  26.5745044  64.6309757   5.2652663
  25.8503532  64.4242191   4.6744269  26.1520076  64.9905396   6.0452932
  12.2009730  75.1483631   0.7245881  12.1872807  76.1042213   0.7733830
  11.4395428  74.9249315   0.1892989   9.3851292  20.4619789  32.9031157
   9.9630940  21.1583185  33.2150507   8.6586434  20.4565430  33.5263515
  69.7947216   2.1310355  28.9307427  69.2073917   2.1596049  29.6860290
  70.3140736   2.9320368  29.0007663  68.6527348   9.5666587  47.2908497
  68.0109262   9.7370684  46.6014433  68.2381582   8.9063376  47.8461266
  22.3305774  44.5936680   8.5494757  21.9624805  43.7918139   8.1783074
  23.1811213  44.6876717   8.1205612   8.7010509  13.4254289  64.6716976
   8.5964078  14.2007220  65.2232409   8.8711506  13.7749541  63.7969780
  26.4460588  46.3378382  32.6455259  26.6332984  45.6963110  31.9602418
  25.8849168  45.8704424  33.2643080  65.3476238  58.3665800  50.7313585
  65.1306820  57.7430296  51.4244318  66.1828899  58.7464857  51.0038137
  68.6217260  47.9989243  42.6120377  68.7128925  48.7857533  42.0746136
  69.5203876  47.7543736  42.8330326  69.5849371  41.7429304  61.1555290
  70.4425716  42.1441269  61.2960100  68.9779139  42.4821043  61.1184406
  25.2204704  59.8795891   5.5626309  25.5132914  58.9759350   5.4447663
  24.3426585  59.8001528   5.9359539  80.4474068   8.6387950  47.9250765
  81.2781525   8.6265916  47.4497271  80.0954819   9.5153105  47.7698326
   2.2455128  17.9282117  41.9219208   2.5597346  17.2558284  41.3174391
   1.2941381  17.8227890  41.9239092  58.2720518  52.3215771  37.4999189
  57.6916313  51.8615341  36.8935299  58.4560442  53.1561232  37.0687485
  78.5718679  29.3326354  35.4568172  79.2082262  29.9591494  35.1122022
  79.0636396  28.8201761  36.0985184  66.1196947  72.7165747  28.2254148
  65.9207582  72.5507927  27.3039103  66.1249256  71.8487310  28.6292052
   2.1825804  20.2162743  34.6471071   2.3516738  19.2826414  34.5207429
   2.3127216  20.6026196  33.7810636   3.6271665  -0.0570028  32.7461267
   3.8772231   0.8596730  32.8619242   3.8975510  -0.2679715  31.8524742
  59.1240883  63.7429905  29.0145779  59.5322609  63.8119078  28.1515145
  58.1973553  63.5905409  28.8297558  78.1923389  29.1197371  28.5299921
  78.9550066  29.6958065  28.5820651  78.5545921  28.2361984  28.5960674
  15.0655508  59.0009737  20.2894378  15.2400625  59.9255800  20.4651570
  15.5033588  58.8288116  19.4558215  26.8458843  30.6828928  24.2333555
  26.7212749  31.5076065  23.7637258  26.2438130  30.7365775  24.9755549
   0.6983770  21.2491488  18.1633854   0.2828861  22.0066857  18.5753763
   0.8282965  20.6280255  18.8800156  75.0895357  33.1712747  38.7664461
  75.0958967  33.0044818  39.7089815  74.7857666  34.0753555  38.6852455
  75.9418106  39.9458981  56.4269638  75.4056931  40.4627419  57.0283651
  76.2301207  39.1959643  56.9472599   1.3492633  12.0804715  45.9326696
   1.4952545  11.5767908  45.1319027   0.4505230  11.8710029  46.1868763
  15.3257978  11.1388755  29.8878360  15.3748500  10.5518520  29.1333628
  14.4478202  10.9997702  30.2428555  12.9211736  76.1357403  28.3886290
  13.4931028  76.9002438  28.3203435  13.0869710  75.6401920  27.5866485
   6.3419622  44.5243216  31.3700795   7.2653198  44.6465921  31.1494160
   5.9386283  44.2247820  30.5553222  15.7845831  37.2700667  38.4532881
  15.2431703  37.3625135  37.6693535  15.2383614  37.6082706  39.1628599
  67.8284073  50.4951906  45.5765724  67.5151682  50.2693653  44.7007179
  68.5458183  49.8828506  45.7396412  42.2152185  56.5500164  65.8040810
  42.7209616  57.3606730  65.7466412  42.5181293  56.0257053  65.0627518
  51.2523317  30.4673362  46.7735577  51.8668127  31.0145760  47.2626066
  50.3911638  30.7138157  47.1110010  62.8174686  31.3723063   2.3835126
  62.3240423  31.9556785   2.9600874  62.8901196  30.5544662   2.8755420
  65.8529615  32.3772693  52.1686888  65.0853014  32.7927852  51.7759085
  65.6048822  31.4577532  52.2644901  12.5102997  68.5244322  28.5537601
  13.0184317  68.1487370  27.8348112  11.7718363  68.9567518  28.1248069
  68.6528063  15.0138807  11.3747668  69.5894384  15.1020050  11.5513766
  68.4283733  15.7989192  10.8751893  72.2817564   8.1447124  49.5168638
  71.9841814   8.8578808  48.9520025  72.9868889   7.7262765  49.0229702
   1.2872683  57.2688246  10.3686464   2.1284920  57.4438524   9.9468178
   0.8956885  56.5719509   9.8420858  58.2761383  73.8588476  20.0338030
  58.9347744  73.7410355  20.7183075  57.7216864  74.5700359  20.3547788
  15.0729704  56.4317322  36.7441082  14.2449725  56.6455936  36.3140917
  14.8160720  56.0735941  37.5937963  66.6420698  35.4567933  43.7122583
  67.4394321  35.6513977  43.2197380  66.1007786  36.2396932  43.6107683
  82.7344025  73.4401035   1.6472730  82.0852830  74.0687656   1.9629616
  82.3451778  72.5839853   1.8255964  79.9096441  33.2505822  38.7459373
  80.0740242  32.3436379  38.4877515  80.6039715  33.4504795  39.3737817
  11.8090156   0.6546406  45.1287508  11.0402349   0.3504900  45.6111431
  12.2538999  -0.1479527  44.8564529  52.4338722  76.7003632  46.6671801
  52.9442024  76.8756247  45.8765602  53.0857515  76.4536524  47.3232412
  81.3093185  52.0061588  37.3245764  82.2057629  52.2524977  37.0966625
  81.2027836  52.3001957  38.2292461  54.5754147  14.2276502  65.5905104
  55.2403355  14.5398581  64.9767971  53.9538050  13.7454140  65.0452757
  37.6414943  68.8535929  38.2800841  38.3222628  68.6616087  37.6351595
  37.4910307  69.7951841  38.1964469  38.7202120  35.2353644  62.4703789
  39.4393969  35.8325434  62.6762438  38.3115697  35.0519609  63.3163118
  45.3771877  65.4945374  23.4574890  45.9673262  65.0594473  22.8421307
  45.7560968  66.3652754  23.5777783  45.3079557   6.0461497   9.1541815
  45.0480175   5.4087222   8.4890872  44.9504995   5.6988835   9.9714106
  81.7550278  23.0407786  35.5789542  81.8841267  22.0928788  35.6114197
  82.4430656  23.3562803  34.9930382  38.5241818  24.5393467  64.2484713
  37.8032947  24.6493936  64.8685074  38.0993176  24.2807198  63.4306479
  18.8025439  33.6279273  66.8668175  18.0101168  34.0116715  66.4912748
  18.8685036  34.0191746  67.7379131   8.6503559  12.6525116  36.9404340
   7.7728665  12.7691984  37.3046160   8.8576263  13.4967732  36.5398192
  10.8205378   7.4850470   1.9630469  11.7391777   7.6279223   2.1909058
  10.8507311   6.9375926   1.1784364  76.9817257  45.3040552  35.4571605
  76.5603447  44.8360252  36.1780024  76.6843176  46.2088490  35.5527282
   4.6523821  47.3137379   2.8259996   5.3148836  47.9822779   3.0002949
   4.6099520  47.2617960   1.8711522  76.8574762  15.1473010  20.1853013
  76.9292212  15.9712732  19.7034764  76.6123676  15.4093254  21.0727119
  68.1683350  22.6373839  21.9739199  67.5028086  23.2794452  22.2210407
  67.7310705  21.7910552  22.0674944  58.5181189  32.8364158  42.6046515
  58.7950754  33.7029791  42.9022932  58.9465189  32.7265096  41.7557526
  70.5063820  29.4926023  19.1000509  71.4600086  29.5342755  19.1713703
  70.3244209  28.5874486  18.8474226  55.7209301  36.0681891  46.3046122
  55.2109909  35.4503679  45.7806921  56.3737917  35.5254817  46.7467356
  76.9332266  39.2614412  50.1757240  77.4388647  39.6544552  50.8871365
  77.5700283  39.1305304  49.4731760  68.8019562  47.3301315  51.2698793
  69.1859627  47.9425192  50.6423855  67.8610086  47.3706722  51.0989761
  77.2788334  22.7225351  40.6627226  77.6523876  21.9332671  41.0548258
  76.3363600  22.5565791  40.6418562  66.2794781  22.9635000  29.7197247
  65.5981350  23.0642295  30.3844476  65.7991838  22.8586745  28.8984084
  66.4276552  10.1007915   6.0092890  66.3767672   9.1840190   6.2797886
  66.4459705  10.5921638   6.8305379  42.3288918  57.6370907  43.4346581
  41.4928961  57.4708652  42.9991007  42.0867348  57.9591656  44.3029070
   8.5878885  17.1761954  54.9169493   8.4062684  17.7314615  54.1587114
   7.7778310  16.6848946  55.0535536  16.1929727  12.9732275  32.1045041
  16.3017929  12.1969521  32.6538539  15.8805108  12.6318169  31.2666273
  82.1370792   7.5010300  59.8434401  81.4782715   7.0604330  59.3067122
  82.8361988   6.8548298  59.9429131  49.7909641  52.2757912  54.6712351
  49.0990877  52.9185200  54.8275661  49.9572468  52.3270273  53.7299824
  63.8303471   6.7004758  57.0631647  64.1147709   7.0487219  56.2181425
  63.1642532   7.3181695  57.3648310  44.3468618  74.1883135  63.2621336
  45.1908827  74.1664982  62.8111601  44.5596790  74.4572115  64.1557980
  11.7164934  16.8853438  57.9175663  11.1255932  16.3315594  58.4278488
  12.3324680  16.2723267  57.5162935  77.5537586   5.8296353  57.9331160
  77.8543854   6.4476484  57.2668457  78.2228661   5.1452386  57.9442930
   6.3139457  33.5310888  43.8271856   6.5029114  32.6612043  44.1790724
   6.3503814  34.1104364  44.5882750   4.5248914   3.3682325  62.2170448
   4.5564681   3.5980976  63.1456995   4.5678711   2.4120690  62.2053862
  72.2825670  12.2355056  26.7308593  71.7774630  12.7456832  27.3639631
  72.6963139  12.8916752  26.1700654  39.5701432   3.7754932   0.7460852
  39.4410777   4.3167484   1.5249410  38.7074375   3.4002611   0.5695306
  68.9917946  54.0143681  37.0501471  69.1672230  53.1753540  37.4761915
  68.6488771  53.7782478  36.1882401  11.7272508  77.0737123  13.3915162
  12.1210921  76.5619135  14.0980458  11.0565937  77.6024199  13.8238597
  68.6178398  25.8428025  36.3093138  67.9956341  26.1014891  35.6294799
  68.2587814  25.0303531  36.6660166   5.6739962  41.8085670  64.4314575
   5.7660729  41.7008829  63.4848022   4.7595868  41.5887547  64.6097040
  26.1525655  11.8815446  56.6676807  26.3969326  12.6959693  57.1072578
  26.9054890  11.6725266  56.1148262  78.1603718  25.0469756  41.7115974
  78.9393139  24.8370242  42.2267723  77.7865219  24.1954803  41.4848328
   0.5731740  28.6481738  14.6859717   0.0089273  29.2749214  14.2331529
   0.5319910  27.8570890  14.1486430   2.4778937  39.6344209  56.6168261
   3.2028973  39.1430926  56.2305641   2.4252599  40.4344463  56.0939360
  22.0312548  76.3256359  12.6324511  22.3794413  75.4568768  12.8330934
  22.7713156  76.9174147  12.7678752  81.2694836  34.6296763  48.3568001
  81.3841820  33.9077306  48.9747620  80.3299046  34.6418381  48.1744003
  17.9688692  19.3204439  32.0301318  17.5700855  19.0836000  31.1928082
  17.9114223  20.2754140  32.0611715  15.5659080  65.1025772  39.3840909
  15.0603318  65.9029770  39.2427039  16.4335680  65.3021097  39.0325451
  81.6804695  39.0821242  39.9634385  81.4352894  39.0281010  39.0397501
  81.7461205  40.0207329  40.1393127  60.1612234  22.5144958  40.3180695
  59.7448540  21.6801119  40.1020288  59.4752264  23.0181360  40.7562256
  50.0895834  70.0939226  38.8915873  50.9716415  70.3277063  39.1806388
  50.2279806  69.4507170  38.1963444  24.0968537  54.8534393  13.7870109
  23.7902737  55.7389021  13.5915697  24.7871017  54.9773121  14.4385064
  65.5095863  20.1237369  58.0439949  65.6893015  20.7397699  58.7542343
  64.9560499  19.4526505  58.4433365  27.2432160  61.1884928  56.2197876
  26.6792607  61.3022709  55.4547787  28.1329036  61.2167645  55.8678102
  11.0584414  29.3275571  40.9924126  11.0597980  29.4838285  40.0480556
  10.4348838  29.9653029  41.3398218  74.7188187   5.3168792  49.2394161
  75.6373024   5.0583762  49.1632938  74.5421505   5.2990675  50.1800013
  73.5123920  48.3124208  30.8816385  73.6843300  47.4536705  30.4953504
  72.8095150  48.6797571  30.3456736   1.0482099  64.5793104  58.1650543
   1.1629644  63.6588430  57.9288292   1.7903802  64.7740412  58.7373257
  63.2139683  45.2664232  33.6845565  63.2953358  45.8818388  34.4131660
  62.7827120  45.7690859  32.9934883  71.9483566  39.0938711  56.6763973
  71.2528038  38.5121965  56.3696480  72.5824404  38.5101581  57.0928764
   7.7516413  23.3177185  47.3265171   7.9963803  22.8473067  48.1234169
   6.9319296  23.7582636  47.5506306  49.3758535  51.9367743  12.7821004
  49.1384935  51.2937784  12.1139324  50.2173090  52.2868252  12.4894357
  71.3235950  12.6473808  53.3948898  70.7310915  12.5176799  52.6543808
  71.6179228  13.5542560  53.3101463  70.2024698  56.9328833  57.5351954
  70.9781456  57.4723053  57.3816442  69.6381283  57.1048164  56.7814112
  16.2085617  24.2672706  27.3023748  16.7074203  23.9762068  26.5390587
  16.7127454  23.9519787  28.0524564  63.1266212  26.0191917  55.5504990
  62.2388744  26.2067389  55.8553934  63.2427883  25.0830102  55.7126808
  78.3160210  19.7510147   1.5840136  77.3946285  19.5219529   1.4623930
  78.7233067  18.9450502   1.9014663   2.4089307  72.7744150  52.3568392
   2.3347320  73.7231255  52.4601793   3.2880026  72.6400900  52.0026922
  60.0534582   5.6586486  49.5817518  59.8798323   6.1576742  50.3799105
  59.4355249   4.9284616  49.6166182   5.5974323  33.3548832  26.0567975
   5.6132454  33.5563636  25.1211762   5.0409001  32.5791264  26.1253715
  72.2104692  64.9941015   2.0367466  72.5884008  64.9216461   1.1603051
  71.4074707  64.4747925   1.9949982  61.4532280  17.3190057  33.4669089
  60.6403589  17.7178466  33.1564307  61.8610239  16.9613588  32.6782250
  15.1517487  45.8645010  55.7112265  15.4599607  44.9914455  55.4683113
  15.1426482  46.3529158  54.8880625  67.7402067  19.1895151  45.8593750
  67.2615242  18.5402155  46.3746500  68.6530685  19.0814114  46.1262655
  65.9919596  14.1054142  60.0162792  66.1043072  15.0536537  60.0829983
  65.0565910  13.9641762  60.1624584  68.1531668  43.5359383  28.6151028
  67.2398567  43.7073755  28.3855319  68.2106638  42.5822067  28.6727905
  22.0210361  32.0552683  20.8501744  22.4927282  31.5407872  20.1951575
  21.1714530  31.6214395  20.9291291  66.0291052  64.8165369  62.2793674
  65.7429552  65.2664328  63.0743122  66.8634653  65.2298260  62.0574045
   4.1026381  28.3728719  36.3910556   3.3839378  28.0356479  36.9258285
   4.5999005  28.9350390  36.9851375   0.1763310  10.8354878  66.7930412
   0.3855672  10.2018464  66.1067820  -0.1930843  10.3081822  67.5013542
  14.9041736  31.6867542  24.8090124  14.7232389  30.7786512  25.0515890
  15.0138736  31.6634274  23.8584042  32.2607350  60.3027058  16.1329734
  31.5988421  60.1997566  15.4492116  31.7701960  60.6038284  16.8977797
   8.0996192  41.0586214  21.1547804   8.5346460  41.6330147  21.7849040
   8.5116434  41.2672043  20.3163528   9.3574280  48.6554289  16.0118902
   9.3507004  48.3942890  15.0910246   8.8775051  47.9599571  16.4615810
  69.1940928  50.3399801  22.9362655  69.7763538  50.8539534  22.3767757
  68.5775137  50.9798288  23.2921529  51.4010382   2.9704088  52.4286127
  52.0444345   3.6628139  52.5797844  51.5224934   2.3664916  53.1612539
  57.4265718  61.5205288  43.9665890  57.0156956  61.0678720  44.7031450
  57.1241379  61.0437775  43.1936264  40.1816177  75.8982038  46.1063910
  39.7503448  76.6519260  46.5090513  40.8674240  76.2793589  45.5580950
   5.7581651  54.5442104  52.5276327   5.2422315  54.4684792  53.3303213
   6.2597209  55.3516245  52.6405764  43.5960340  29.4981766  66.2101507
  42.7052736  29.7937989  66.0220242  44.1577959  30.1745534  65.8317757
  80.5590725  25.4844284  39.9284554  79.6190357  25.5357742  40.1014376
  80.6204891  25.1239157  39.0438700  76.6071987  58.6109543  35.6602931
  76.8008280  58.1853199  36.4955044  77.3576260  58.4005213  35.1045895
  33.9820313  64.7187090  40.8169985  33.8074803  65.6590891  40.7788944
  33.6518288  64.3799067  39.9848843  76.3073444  35.2655363  28.8630056
  76.0626173  36.0126162  29.4090939  75.6167221  34.6206450  29.0159249
   4.1949344  35.3683281  43.0468559   4.9508795  34.9332476  43.4411716
   3.5145372  35.3218174  43.7185192   4.7850516  40.4821014  43.7375116
   5.2132285  40.9082699  42.9950285   5.1776040  39.6097803  43.7719727
  76.2589884  23.5052299  55.8057976  75.6131411  23.0648160  55.2533960
  75.7658052  24.1981149  56.2450171  42.8308344  59.7019100   9.2430425
  42.6240063  59.5295525   8.3244866  42.7009439  60.6447649   9.3449569
  17.1293724  54.3203211  55.5436659  17.5999868  54.1449261  54.7288084
  17.3707819  55.2182007  55.7711792  23.7631702   3.0864945  18.6624920
  23.0795979   3.0120432  19.3283892  24.5829177   3.0231380  19.1526258
  75.4772043   6.2178922  37.5357533  74.8997355   5.4670376  37.6735210
  75.7825279   6.1228669  36.6335464  82.0293427  28.0715489  50.7821894
  81.3864994  27.5556755  51.2688732  81.9602871  28.9514685  51.1526012
  11.5367413  25.0668430   2.1734373  12.1882057  24.9110532   2.8572178
  11.5629780  26.0126662   2.0286486  39.4721222  74.1544151  31.7664504
  39.3453312  73.4959459  31.0833907  38.5863018  74.3725920  32.0561981
   0.1613772  72.7085924  63.3013344   0.5817295  71.9342756  63.6754608
  -0.5201090  72.9396868  63.9325285   2.6777071  73.7903547   5.3402674
   3.3150280  74.4869328   5.1826966   3.1108439  72.9948997   5.0306267
  73.9683867  16.2270987  35.8428955  73.3282328  15.7739305  35.2941942
  73.7422037  15.9701729  36.7367983  18.8820982  74.2505455  17.2255516
  19.2631376  73.6800957  16.5579975  19.5045638  74.9731588  17.3067880
  27.3277950  24.8369479  27.2612095  27.9150248  24.1570759  26.9308090
  26.6655135  24.3593645  27.7607369  54.6218586   1.4924668  14.9520290
  54.2490005   2.3446308  14.7261465  55.2403975   1.3067952  14.2455101
  11.8910050  10.7671952  24.1815352  12.2993219  11.0125387  25.0117850
  10.9650278  10.9799159  24.2979360  58.4088230  73.8043880  41.0047817
  58.2358027  72.9762030  40.5571175  58.2879829  73.6046791  41.9330835
  76.3765574   7.8178841  45.6531620  76.7885399   6.9741571  45.8392429
  75.4836226   7.5954813  45.3896475  52.2100496  42.4434710  15.3448641
  51.4801121  43.0041885  15.0821626  51.7966604  41.6246557  15.6185031
  57.6203537  24.9328351  28.9453530  58.1819153  24.6374583  29.6620369
  57.8241730  25.8631253  28.8491750  31.5029120  73.2038927  17.1710658
  31.0059571  72.5963593  16.6231894  30.8627176  73.8629913  17.4393427
  28.4461331  22.8313684   1.5125284  28.6623883  22.3632669   0.7060876
  28.7334204  22.2462535   2.2134852   9.4480318  20.8654356   5.1474047
   9.8264563  20.9441876   4.2717195  10.2025509  20.7491159   5.7248139
  49.6015930  43.5393476  39.4772506  49.9336386  44.4359350  39.4313145
  48.9252949  43.5687780  40.1539946   8.9236462  21.1686397   8.7687129
   8.2536745  21.5767956   8.2202804   8.4374976  20.7999897   9.5062691
  39.3691683  32.7854705  58.3795023  38.7109804  32.4296045  58.9764786
  39.0297747  32.5916409  57.5057316  47.4927092  68.5691071  17.3817086
  47.5781679  67.6373768  17.5837040  46.6103458  68.6560345  17.0209980
  53.9437723  76.0309505  21.1636567  53.8130140  76.8765354  20.7345676
  53.3293676  76.0372591  21.8976164  18.1249893  28.1860638  19.8592198
  17.6973057  28.1658816  19.0031171  17.4029946  28.2143712  20.4870367
  20.4772162  43.6770010  56.8037271  19.9667251  43.8540554  57.5938416
  21.3307571  43.3909702  57.1291351  75.5201054  61.6318083  30.2878594
  75.4384232  62.2994041  30.9689426  75.7611942  60.8353329  30.7608676
  70.3706741  31.5368390   8.2407451  69.5447683  31.3360834   7.8005111
  71.0052252  31.6272402   7.5298285  51.5518713  10.6167400  62.1915102
  52.4934626  10.4500151  62.1485853  51.1680508   9.7677225  62.4107885
  46.0256100  64.6528053  34.8052859  45.2545357  65.2126169  34.8963428
  46.0986900  64.2066956  35.6490135   5.8063495  19.6629965  55.0059748
   6.0978836  19.9278629  54.1335726   4.9354196  19.2917275  54.8650074
  17.2921562   3.6378333  27.5392270  17.5042033   2.7047434  27.5639415
  18.1427920   4.0767330  27.5350332  71.3448238  39.9040151  32.1865010
  71.8791056  39.1849995  32.5238347  71.5221834  39.9133754  31.2459207
  52.7166986  76.9832659  62.0122147  53.6118937  76.6454029  61.9855690
  52.6821613  77.6261711  61.3038969  72.6836252  27.6106381  37.3073196
  72.8323698  27.4296045  38.2353997  72.1261168  26.8918347  37.0094347
  32.9392695  66.8656492   8.4699744  33.7587976  66.5858936   8.0621243
  32.2744989  66.7186642   7.7971387  82.0025730   3.5587522  37.3147583
  82.2956181   3.3454412  38.2006788  81.0681438   3.7433982  37.4095297
  22.9596233  65.7667685  44.9960756  23.8256478  65.6661129  45.3911734
  22.5061107  64.9492645  45.2016115  15.3453791  63.8071537  36.7601228
  15.0380659  64.5658064  37.2563505  16.0343587  63.4273958  37.3053932
  40.0766277  20.2725887  62.6806164  40.6852722  20.5532408  61.9972229
  40.2115107  19.3273413  62.7480268  79.6719265  50.8119965  43.2240391
  79.6116877  51.7402983  43.4495592  78.8553619  50.4330111  43.5493422
  69.2630959  45.8589315  55.6751013  68.8250542  45.1016760  56.0635853
  68.6375999  46.1939049  55.0326204  24.0887809   3.0746767  24.2464995
  23.6148357   3.7218493  24.7687769  24.8160911   2.8017396  24.8057437
   9.8155582  22.5228167  28.2271767  10.7459235  22.4713182  28.0080867
   9.7314149  22.0166922  29.0352535  67.8279066  73.2862997  19.8974812
  67.3617697  74.0260410  19.5079553  68.6965752  73.3124971  19.4962823
  18.3036768   5.6420845  29.3597198  17.6984704   5.0764424  29.8393106
  17.9966486   6.5302444  29.5417595  48.1101608  20.1019621  39.2343521
  47.7838278  21.0012579  39.2660069  47.3229790  19.5644546  39.1468382
  76.7717314  40.3357029  34.4877958  76.1458492  40.3064489  35.2114320
  76.7949629  41.2567663  34.2283058  29.0617061  16.3511515  50.2673197
  28.6209917  15.8832121  50.9765720  28.3722258  16.5153480  49.6239805
  17.1548378  32.9991007  30.0889492  16.4102900  32.8253365  29.5130277
  17.6379132  33.6999059  29.6510649  10.6390226  42.8699875   9.0477091
  10.9706569  42.3036766   9.7445166   9.7003794  42.6852465   9.0152812
  74.6010208  50.8227634  53.9955616  74.5019436  51.3715601  53.2175875
  73.7226391  50.4798841  54.1602373  11.4750886  54.5323706   1.2041248
  10.6607342  54.4767189   0.7041630  11.2342858  55.0021076   2.0026186
  69.6207094  28.6634779  12.2162306  69.5626450  29.1404581  13.0440903
  69.2243958  27.8122044  12.4019706   8.2122701  55.7691097  49.3920231
   7.9897374  55.6094217  48.4748507   7.9038125  56.6591930  49.5618582
  51.9817638  49.7668314  50.6825399  52.7352810  49.9711323  50.1287270
  51.5409422  49.0469837  50.2311802  50.3624773  67.8010178  10.8513379
  50.1986933  68.5708714  11.3960671  51.0335159  67.3102665  11.3257933
  24.4266033  63.5209274  10.7477939  25.2236843  62.9938555  10.6922174
  23.7312651  62.9361153  10.4465771  62.1080160  76.4612341  42.8507328
  62.1753883  77.0759773  42.1201277  61.1807060  76.2258196  42.8809357
   6.0386640   0.5002035  56.9280624   6.2787306   0.1030643  56.0908747
   6.6785258   0.1535202  57.5498486  38.1475258  54.9214983  46.3261747
  37.5499058  54.7643185  45.5951595  38.6356950  54.1031265  46.4166689
  75.0604391  56.5190411  56.1989546  75.7387638  56.8564606  55.6139278
  74.2858982  56.4330196  55.6431532  65.6536436  43.2358742  34.3548584
  65.3968716  44.0602016  33.9416003  65.0888062  43.1677151  35.1246238
  43.0321264  20.6825900  12.3434830  42.5621367  19.9165499  12.0140576
  42.3657608  21.3676548  12.3970938  41.9777250  63.9219332  37.4705219
  42.6851511  63.3716869  37.1343493  41.2181997  63.6880636  36.9369864
  33.4322572  70.3377628  12.3216534  34.0734601  70.1789665  11.6289234
  32.8796220  69.5562077  12.3202336  77.8711414  32.8337049  34.8622370
  77.6562786  32.8599095  35.7946420  77.2378397  32.2214746  34.4876266
  12.3946667  33.9270163  52.2464514  12.6073968  34.8598123  52.2758722
  12.4634278  33.6947632  51.3204050  66.2296581  40.4748678   9.4698781
  66.2408113  39.5564079   9.7392035  66.4453220  40.4537058   8.5375297
  30.2466130  37.8827715  23.0676627  29.8330903  38.6929417  22.7695775
  29.5715690  37.4464989  23.5874820  27.1531534  36.9528604  53.6152220
  27.1723390  37.5728345  52.8861856  26.6091585  37.3788691  54.2776537
  28.9350247  58.5738468  60.4196453  29.4932699  58.0104446  60.9555292
  28.5944438  57.9947615  59.7378063  59.7978115  65.7982683  54.9823856
  60.2575684  66.3968372  54.3936825  60.2498198  65.8927011  55.8208370
   2.0214505   4.8209718  36.1471558   1.2057567   4.3839902  36.3919473
   2.6608640   4.1122219  36.0760498   0.4284658  33.7694407  32.7740479
   0.5432104  34.6945453  32.9914141   0.9967712  33.3064914  33.3896279
  42.3927355  73.0250978  24.3277097  42.8358078  72.1978998  24.5165443
  42.2343397  73.0019760  23.3839893  79.6423388  15.3706872   8.2831013
  78.7882471  15.7591951   8.4723550  80.0367069  15.9605265   7.6406085
  17.8098285  35.0212741  61.7850399  18.4499824  35.4639912  62.3422050
  18.0953574  34.1077542  61.7713785   2.6703757  65.0567055  39.9026060
   2.7499023  65.7279587  39.2248702   2.4595889  65.5441809  40.6989574
  62.4145794  24.7057796  22.9521132  62.7796650  25.5257034  23.2847834
  62.5477648  24.7510195  22.0053029  81.3868904  77.0772123  35.6967854
  81.2437057  78.0206251  35.7723022  81.9990349  76.8705750  36.4030528
  30.3289604  60.3335714  14.1621983  29.6820831  59.6419907  14.0225637
  30.5008745  60.6809855  13.2869935  40.6969595   3.0154216   7.9184407
  40.8645964   2.8205100   6.9964111  41.4382410   2.6278836   8.3837879
  26.9022107  21.0958171  10.8106351  26.1923075  21.6856527  10.5569315
  26.7017555  20.8548951  11.7150724  38.7648511  72.9580164  22.7743292
  39.6891475  73.0416107  22.5399804  38.3240724  72.7676964  21.9462442
  25.9062171  13.9377642   0.8686093  26.5256310  13.6872315   1.5540236
  25.0452757  13.7589192   1.2467928  19.3804240  56.0909605  61.9935322
  20.1383662  55.9465122  62.5600052  19.1519606  55.2187681  61.6721010
   1.9158502  14.8459554  18.0064690   2.7054963  14.7164786  18.5317564
   2.2364122  15.1911628  17.1732211  19.9190426  27.8667593  56.5001392
  20.4139948  27.7786732  55.6855869  19.0523052  28.1635785  56.2228346
  70.4534054  70.1219749   4.9441421  70.6696415  71.0521269   5.0095809
  70.8949089  69.8289394   4.1470009  55.2467966  11.2538505  28.6921453
  54.7870684  10.9351993  27.9153919  56.1726141  11.1038291  28.5008883
  64.5732498  73.4748983  38.2084632  63.7749910  73.9211702  38.4910536
  65.2231455  74.1732740  38.1300974  61.2676716  13.7399137  28.1572533
  61.7640114  14.3407977  27.6015401  60.4867601  14.2340803  28.4066629
  78.7999249   9.6695518   6.2947404  78.9539576  10.5417442   6.6577613
  78.1900644   9.8154116   5.5715322  30.1416421  54.0478659  18.2920241
  30.8711290  53.8925695  17.6920521  29.4756484  54.4755125  17.7536929
  15.9555578  21.8998551  66.7634773  16.4626920  22.5880456  67.1941042
  15.2332902  21.7219996  67.3659134  74.5775223  25.5717278  14.6266174
  74.8951626  26.4695263  14.7230387  74.5786715  25.2203393  15.5169868
  10.6479609  -0.1212991   8.9193302  11.3645792   0.1972458   8.3704954
  10.4009724   0.6340080   9.4529402  41.5847301  73.0538511  19.0466940
  42.4474859  72.6403046  19.0173018  41.6541052  73.7956715  18.4457564
  43.0484247  60.0735569  32.7258039  43.2986450  60.7045984  32.0509648
  43.4390783  59.2482376  32.4386287  27.4935865   8.6354947  65.9463978
  27.6983976   9.5575929  65.7914162  28.3174396   8.2550704  66.2509918
  62.5989056  17.7905917  64.8585939  63.5187387  17.6778710  65.0982428
  62.1227503  17.6917553  65.6830549  32.3985267  35.0120592  55.1170444
  32.7484488  34.6316433  54.3113947  31.5686226  34.5559478  55.2565241
  62.1307421  29.7412348  32.9217076  61.6262484  30.1064301  32.1948314
  62.5322390  30.5023813  33.3408594   1.8387555  29.2355204  55.1005030
   2.1354148  29.7524381  54.3514872   2.5241327  28.5790157  55.2249670
  51.9731236  62.1397734  13.5185564  52.3621988  62.9875755  13.7332320
  51.4890432  61.8920469  14.3062937  70.0384903  74.2708254  30.6190419
  69.2707253  74.4464874  30.0750637  70.6649828  73.8596582  30.0234914
  56.9275713  22.7706027  14.3119049  57.8331947  22.4954820  14.4546878
  57.0008945  23.6317015  13.9003706   2.5080276  48.7795830  46.7421913
   1.7667513  48.2174873  46.9675636   3.1216276  48.6694860  47.4685574
   1.4620298   8.3303791  16.7667747   1.8875697   8.7718087  17.5018167
   0.6789723   7.9324567  17.1471834  51.0933113  52.0236874  52.0252228
  51.9848585  52.2743273  52.2672129  51.2010098  51.2259769  51.5072584
  21.8342279  48.0000219  66.9026429  20.9708808  47.8678695  67.2943045
  22.0518802  48.9101098  67.1041351   1.9884647   4.4605228  18.9910400
   1.0711078   4.1922641  19.0432453   2.1390930   4.6186864  18.0590928
  32.9509020  46.8643141  29.3956614  33.6809516  47.2960186  28.9519358
  32.5493765  47.5546503  29.9233437  62.9739141  33.4770322  17.6984966
  62.5986481  33.6918807  16.8445349  63.9154863  33.4153414  17.5376785
   8.6369020   4.0539271  14.0973413   8.1698191   4.8439139  14.3693447
   9.5597249   4.2564160  14.2510557  25.1876140  73.9195585  46.8168974
  24.6522808  74.0587425  47.5980997  24.9797177  73.0272007  46.5399456
  22.6024890  55.1714611  48.5429573  21.8517232  55.5120325  48.0565500
  22.9297161  54.4507980  48.0046272   9.1642958  72.1012259  14.5712137
   9.5519942  71.2751150  14.8601115   8.7457567  72.4565315  15.3553164
   0.7348724  70.0803947   8.0559152   1.1162591  70.5200243   8.8158506
   0.7867047  70.7284117   7.3533344   8.2497489  35.6625056  57.6221180
   7.8963703  35.3328419  56.7958784   8.8987112  36.3159966  57.3613024
  56.0527086  76.5344620  16.5681517  56.7624474  76.3514614  15.9525073
  55.6120110  75.6925106  16.6827619  25.4655814  34.7040987  63.2737207
  25.1697063  33.7990928  63.3719826  25.1829171  34.9543333  62.3941088
  20.4503059  71.0093117  37.7591157  20.4363179  71.9554615  37.6147699
  19.5719850  70.8027697  38.0786872   2.0586725  30.3807998  22.5702643
   1.1498391  30.1793194  22.7931094   2.4843469  29.5259738  22.5046420
   4.9313021  13.4603441  27.6627159   4.7467402  14.2583060  28.1581211
   5.0337446  13.7579513  26.7587447  40.0798655  67.0853806  67.0299244
  39.4425893  66.9823885  67.7366781  40.7542419  66.4327908  67.2185230
  50.0096560  22.0636559   9.5694965  50.5635738  22.6338887   9.0363550
  50.4814005  21.2313151   9.5993978  63.5212994   4.8983252  24.9278212
  63.9613628   4.6666265  24.1099620  63.7770271   4.2092034  25.5409646
  14.3785310  60.3536987  55.9783316  15.3140068  60.1535702  55.9456778
  13.9483058  59.5169783  55.8021641  48.8059950  18.9925504  20.6651664
  49.4693279  19.0129364  19.9753809  49.1087627  18.3140302  21.2686348
  47.0361805  44.0904522  19.2414379  46.3472319  44.6632957  19.5782316
  47.8426027  44.4340086  19.6259952  50.6488514  35.2566957  56.7770767
  50.4599333  34.6792507  56.0374165  50.6285095  34.6810865  57.5415993
  14.1469955   1.3241278  54.3405533  14.9634230   1.1809048  53.8618422
  13.4591413   1.1600227  53.6954498  49.5991516   7.3617989  29.5541668
  49.9385357   7.0606267  30.3969860  48.8293409   6.8151200  29.3967867
  76.0132885   3.6742303   0.9525572  76.3741398   3.2836470   1.7484602
  75.6759691   4.5244396   1.2346763  77.7795219  43.9897394  53.3129597
  77.4410725  43.4551668  52.5946903  77.0829725  44.6220303  53.4897757
   0.8729273  24.7394466  20.4005694   0.4496171  24.4134521  21.1947775
   0.2651045  24.5152736  19.6959209  45.0349855  39.0714049  10.0929093
  45.3988409  38.6080217   9.3385124  45.5281210  38.7351203  10.8412158
   8.4042192   1.3856135  25.8854723   9.2275637   1.5828808  25.4389071
   7.7290189   1.5532458  25.2280259  52.9316950  21.0470772  14.5598936
  52.3888397  20.7544470  15.2919507  53.8200045  20.7835650  14.8001099
  49.9765158   7.6995134  41.4058065  49.9510908   6.8898571  40.8958626
  49.4003630   7.5311548  42.1514177   3.4382778  65.6094027  14.3602073
   3.6564147  64.9150133  13.7385392   2.4893221  65.5451107  14.4678235
  67.1834564   6.7451602  33.1776166  66.7884445   5.8963990  32.9781055
  66.5245056   7.3851854  32.9085732  11.4098215  43.8573074  57.2692728
  11.6384399  43.4621334  58.1105804  10.5514896  43.4902906  57.0576191
  82.3483658  54.0842342  52.3953104  82.2025490  54.9784613  52.7040482
  81.8546486  53.5366058  53.0056953  81.2603283  21.4975023  10.3259587
  81.0878277  20.9204102   9.5820248  80.8243847  21.0727453  11.0647166
   5.6967312  11.0140324   6.2534064   5.9987783  10.4406178   6.9578183
   5.0249028  11.5606320   6.6609693  11.9693792  58.5024118  50.3083611
  11.6255450  58.7708378  49.4563293  12.6316667  59.1610432  50.5176687
  74.5062304   5.4057044  29.7017074  74.5830727   6.1917073  30.2425647
  73.6340094   5.4672796  29.3122578  76.1715269  41.7117977  62.0696402
  76.0456848  41.3974380  62.9649448  75.8821106  40.9852219  61.5177727
  53.9186716   7.0190799  62.2596836  53.2880545   6.7625940  61.5868044
  53.8385391   7.9714572  62.3124743  37.7878475  18.9643574  59.9948168
  38.7268329  19.0592325  60.1546192  37.5960803  18.0556285  60.2264881
  51.3613892  49.2138863  18.6209202  51.4935923  48.3156586  18.3177078
  51.5401173  49.1782236  19.5606101   9.1405672  40.3691530  12.6690626
   9.9209952  40.0471306  13.1201315   9.4662029  40.6949520  11.8299866
  48.8985729  36.6574359  53.2450867  48.0196285  36.4270806  53.5461283
  49.0316534  36.1223698  52.4626398  66.7177534  19.9304044  63.5824871
  65.9453249  19.9590564  63.0178976  66.3660812  19.7992301  64.4630289
  42.8642225  42.9170370  63.5711241  42.3356628  43.4869909  64.1297007
  43.4753609  42.4918938  64.1727829  36.0114884  66.2358999  28.7926984
  35.2094626  65.8272505  29.1182590  36.1239505  67.0126867  29.3405914
  45.7872772  18.2838559   3.1708124  45.5076313  17.3776674   3.3006334
  46.6617632  18.2121825   2.7882311  72.9120684  16.9351685  64.8605251
  73.0613899  16.0357296  65.1519775  72.3558903  16.8469143  64.0865040
  51.0367107  46.7690039  15.7645309  50.8290672  46.0036182  15.2285266
  51.4747190  46.4094687  16.5359676  80.9699059  76.0766172   6.7937452
  80.7337952  76.1286306   5.8675826  81.9228649  76.1660433   6.8033606
  76.5795565   7.4091768   6.8316835  76.0992956   8.2371759   6.8326861
  76.4036942   7.0313323   5.9699768  37.9204750  12.7224970   1.4028096
  37.9706335  13.6566448   1.2001159  38.6124945  12.3252046   0.8741342
  70.3026724  17.0066714  33.4062052  70.8913279  17.5761175  33.9016318
  69.5231915  16.9310069  33.9565849  24.6989155  15.4767561  11.8238020
  25.5761313  15.8562779  11.8756616  24.2183971  16.0631812  11.2394738
   4.1371256  14.9795306  19.5918787   4.6280068  14.2035532  19.8622954
   4.7695389  15.5038178  19.1005456  74.4165134  36.2158990  26.8369818
  73.7421227  35.6150198  26.5201712  75.1383162  35.6466556  27.1038127
  46.1541510  11.4707887  50.6435776  46.3891411  11.8366802  49.7908545
  46.0041618  12.2356021  51.1992741  60.8392906  26.7295527  31.9636679
  59.9682999  26.5895391  32.3351574  61.0142374  27.6596141  32.1072388
  26.7566228  20.1494908  66.8837881  26.9083858  21.0169768  66.5087318
  26.3889265  20.3240943  67.7501249  77.5628805  31.1673760  58.4646273
  78.4707642  30.8685398  58.5163736  77.3198223  31.3531876  59.3716145
  74.1061783  70.1746941  10.6684828  74.4253111  69.4076872  10.1929915
  74.4776011  70.9203815  10.1970720   7.8489953  50.6131887  51.0119963
   7.9053938  51.5685749  51.0289669   8.5910612  50.3389883  50.4731226
  50.1934814  55.3108311  20.9447026  50.6246662  56.1469698  21.1212993
  50.3488684  54.7900867  21.7326832  38.8356543  19.7011638   9.4496655
  37.9546833  19.3763161   9.2636555  39.1162062  20.1138067   8.6328125
  33.2104540  62.0136833   1.2569225  32.8997755  62.7709150   0.7606238
  32.9273558  61.2576723   0.7425945  67.9985332  25.1977468  30.6405044
  67.7798700  24.6581268  31.4002609  67.1542358  25.3910279  30.2330327
   1.9047496   4.3640772  16.1069393   2.7563220   4.4391298  15.6763315
   1.6543664   3.4483427  15.9845853  55.3060293   1.7919725  22.6621675
  54.5224237   1.3650902  22.3158050  55.9722948   1.6519329  21.9893289
  25.4481697  25.5669403  52.3009443  25.8220410  26.3288927  52.7435255
  26.1473799  25.2574182  51.7251539   6.2612402  20.4992723  52.2325659
   6.5294814  21.4139652  52.1453047   5.5598766  20.3929996  51.5898943
  66.6644859   7.3034918  16.8176103  66.1180592   6.9150376  17.5008047
  66.0423517   7.6024747  16.1544454   7.7127451  10.2709961  21.7899537
   7.9463172  10.8042824  21.0301638   7.5565261  10.9057391  22.4891877
   4.1593355  74.5838451  60.5594969   4.5799562  73.8439226  60.1215219
   4.8313603  74.9271584  61.1483574  63.4960127  39.4597173   4.9003670
  62.5958967  39.5291400   4.5822510  63.9677668  40.1519823   4.4372800
  66.7495108  45.4974556  31.3218236  67.6214170  45.1038456  31.3547111
  66.7590332  46.0348177  30.5297446   4.7377533  10.9161484  26.1881995
   4.6248499  11.5331876  26.9112134   3.9824748  11.0710835  25.6209421
   2.6128724  26.6976929  19.4793999   2.3941487  26.8220520  18.5558593
   1.9426608  26.0971022  19.8054957  73.3650446   8.2136375  54.9176931
  72.8194475   8.9420414  54.6210766  73.5929394   8.4370768  55.8201170
  15.4944551  33.1431460  17.9532003  15.9782159  32.6954246  17.2591162
  14.6471202  32.6986742  17.9796410  75.8845329  47.3432636  56.0037470
  75.3050947  46.8554831  56.5890265  75.9646702  46.7877340  55.2283812
   0.1819703   0.6648341  12.0807469  -0.7267659   0.9494445  11.9836533
   0.6993403   1.4497367  11.9005024   9.3051356  57.7598572   0.7627605
   8.4094948  57.5372219   0.5088073   9.5051599  58.5526466   0.2650577
  68.7935400  33.0615091  32.7711964  69.6731567  33.4380507  32.7443910
  68.7501907  32.6140642  33.6162663  34.8995352  44.9841738   9.7125816
  34.0256953  44.6893024   9.9688739  35.3208923  45.2290487  10.5364299
  63.7103462  26.7194963  19.1186357  63.9105749  27.6536489  19.1777658
  64.4838476  26.2854934  19.4785881  66.3077593  25.3381991  17.4105811
  66.1482430  26.1671305  16.9592965  66.1184931  25.5257273  18.3299530
   2.3532383   3.0464429  30.5297232   2.0016028   2.1629171  30.4203320
   3.2294476   2.9124695  30.8910275  19.4843173  44.7711372  64.9091864
  19.5117223  43.9155149  65.3374243  20.3992248  45.0501537  64.8727560
   9.6162158  29.2523408  55.5692768  10.3016675  28.8348007  55.0476933
   9.9252659  29.1806388  56.4723682  74.3901682   8.9105344   1.0924685
  73.8396645   8.3767360   0.5195463  74.1920757   8.5971475   1.9749540
  78.1384754  73.6084461   9.5821530  78.8982391  74.1891432   9.5398653
  77.3878908  74.1853905   9.4407922  39.7499752  77.8203773   1.4106835
  39.1685605  78.2924557   2.0067805  39.4220257  76.9211435   1.4183529
  63.7848330  65.6513929  43.6041260  64.4553328  65.0800562  43.2296324
  64.1937494  66.5165043  43.6286068   7.2556722  17.8612661   2.7851880
   7.5141299  18.1503904   3.6603102   7.2887880  18.6549878   2.2512013
  16.9457555  77.4625874  17.2141469  16.9772708  77.5415277  18.1675661
  17.7876616  77.0730877  16.9781053  16.1018598  72.7184486  29.5713997
  16.1318612  71.8026638  29.8483014  15.3182471  72.7778816  29.0249133
  66.7969036  58.4935188   2.3548396  67.4883270  57.9777479   1.9399387
  67.2521830  59.2485189   2.7275693  30.4762769  11.2605143  59.0263844
  29.6158886  11.2918973  59.4446898  30.5248046  10.3844142  58.6438608
  27.6062059  74.3078184  18.2316506  27.5134230  75.0061893  18.8796520
  28.5069108  74.3899822  17.9182696   2.2420326  43.8007736  22.2316146
   2.7592906  43.9701748  21.4442253   1.7127071  43.0345964  22.0102167
  50.3454351  15.9827089  11.1040223  49.7086620  16.6364944  11.3926613
  50.4122114  16.1146033  10.1583076  62.6329660   9.1711158  17.5300527
  61.8937159   9.4585806  16.9942296  62.9961586   9.9799460  17.8907657
  32.4414158  62.1960926  11.8805718  32.7861619  61.3334179  12.1111596
  32.9072714  62.8020382  12.4568057   1.6725127  50.9026814  16.1808157
   2.3842064  50.3551435  16.5123689   1.1351465  50.3068495  15.6588459
  80.0200558   7.1509176  10.9540379  80.9409523   7.2461390  11.1971593
  79.8393965   7.9091060  10.3983891  69.2033243  55.8055878  32.9949450
  69.5806408  56.3641834  33.6745286  69.6875477  56.0335588  32.2013521
  22.4454498  50.7410908  66.6149950  21.6039109  50.8179712  66.1654043
  23.0976295  50.8572578  65.9240532  56.6520643  43.5432148   4.9780500
  57.2635460  44.2466068   5.1961428  55.8068085  43.9819622   4.8817223
  14.0825438  25.0213385  15.6760442  14.3213367  25.5423927  16.4426684
  14.8152804  25.1358914  15.0708950  23.7828112  37.1844745  61.5405989
  22.8622341  36.9284987  61.4836025  24.2487979  36.5161276  61.0382032
  46.8592358  31.2838483  58.4668112  46.9165802  30.3999877  58.8297653
  46.6554451  31.1499095  57.5411987  32.0029283  40.6198406   8.9723217
  32.4788332  41.0469103   8.2600319  31.2499094  41.1887360   9.1321671
  75.2749205  24.3414450   1.3031554  75.6434727  24.5061207   0.4352355
  75.9150982  23.7730241   1.7312968  38.8461566  46.5062046  64.6034813
  39.2147660  45.8812189  65.2277803  38.2898164  45.9754419  64.0333891
  68.5243988  33.1883621  63.1968117  68.3795023  33.9422917  62.6251221
  69.2151594  33.4713554  63.7959671   8.1785715  38.4464407  30.8370495
   8.6642992  38.2880712  31.6465068   8.5784876  39.2338586  30.4679012
  27.7527666  73.6375856  49.5368433  27.6130724  73.0288887  50.2622461
  27.0454073  74.2769432  49.6210718  60.1809359  60.7395458   1.0708766
  60.2419949  60.0230217   0.4391396  59.4532156  61.2754917   0.7555719
  27.9664683  46.1453152  20.1834559  27.3342609  45.4285049  20.1311684
  27.7267838  46.7290497  19.4637084  30.8793211  77.1933126  53.2383442
  30.9530711  77.5574017  54.1205215  30.0446939  76.7246771  53.2416534
  74.4450092  43.6033297  27.0053601  74.5651197  44.5516682  27.0550036
  73.5382843  43.4621668  27.2776723  64.8127985  19.2582536   9.9127388
  65.7412624  19.4756210   9.8294264  64.7046328  19.0182924  10.8330381
  51.9944382  60.2320719  22.5205541  52.4871731  59.5368576  22.9565835
  52.6330423  60.6538963  21.9456792  33.8664436  67.5442839  31.5565276
  33.1032681  67.4828529  30.9820533  34.3434763  66.7276049  31.4092159
   3.7487757   8.3529437  41.8202639   4.0372187   9.0075594  41.1842489
   2.8302640   8.1952482  41.6018581   5.6488389  25.8364558  21.0811448
   5.5005676  26.6528821  21.5583181   5.0171065  25.2222824  21.4552259
  72.0575714  33.7472916  32.6883864  72.9483509  34.0358090  32.4896288
  71.9554090  33.9136434  33.6254692  69.7620678  64.9456024  41.9451380
  69.7694159  65.7694149  42.4324942  68.9479542  64.9719906  41.4423895
  39.2767835  65.3355169  52.5036430  39.5070100  66.2094164  52.8191280
  38.8491344  64.9162722  53.2503557  25.1401639  15.4537654  45.3917360
  26.0665846  15.4780877  45.6312943  24.6752667  15.5215311  46.2257099
   2.3768300  61.4132833  30.2879047   2.4535148  60.9071493  29.4790888
   3.2514313  61.7765617  30.4269505  20.2217078   6.5561754  56.6931534
  20.0595641   6.7859703  55.7782030  19.9055612   5.6562930  56.7737389
  13.2250905  50.6100130  12.4189293  13.0947411  49.9028349  13.0507016
  12.3722219  50.7145834  11.9971311  71.2470484  52.0617580  18.6999679
  71.7982817  51.2997150  18.5220230  70.4915619  51.9509029  18.1227481
   5.0042474  42.1713066  23.4040570   5.1539588  41.3978910  22.8603292
   4.1929212  41.9799232  23.8745403  71.8888426  56.5415478  66.3125420
  71.8866491  56.9023848  67.1991205  72.5703764  55.8696365  66.3291073
  61.4268970  70.4608393  13.8048291  61.9292450  71.0923386  13.2899618
  60.9567642  70.9942627  14.4456649  60.2918291   5.0931960  56.6197109
  60.9095621   4.7125649  57.2440195  59.8744106   4.3381235  56.2051535
   2.1675172  73.4411573  66.7344046   1.9820394  74.1790247  66.1535597
   1.3698508  73.3385468  67.2534704  12.9027152  46.2647295  21.6843867
  13.2425189  46.6350031  22.4990439  13.3352566  46.7673635  20.9940982
  19.3117726  56.2729073  13.3769727  19.3417621  56.6825676  12.5123847
  19.9187362  56.7888546  13.9076591  50.2154350  40.4391146  13.5246170
  50.2114201  40.4714012  14.4812644  50.9874344  39.9172187  13.3058214
  69.1614485  26.0107207  27.3094702  69.3116856  26.9558954  27.3269296
  69.8050499  25.6545472  27.9219651  75.3556204  22.0627904  21.8887091
  74.4417667  22.2584248  22.0956683  75.6528473  21.5126348  22.6134276
  47.2140551  25.2553701  23.0936289  47.5672579  26.1342740  23.2314897
  46.2664509  25.3825307  23.0477405  25.8898759  18.3404529  64.6756744
  25.0485706  17.9287028  64.8728991  26.3599062  18.3362567  65.5095148
  12.8032053  20.2624512  17.5349319  11.9966352  20.0457764  17.0672488
  13.1862211  20.9809804  17.0316958  17.2275651  50.2419901  57.7612734
  17.0715153  50.1844978  58.7039185  17.0314968  49.3648148  57.4321079
   7.4763811  52.0490170  10.3374696   7.5439525  51.7321825   9.4367570
   7.2348768  51.2749720  10.8461595  73.6117077  10.8448482   8.9994627
  73.2337761  11.5233278   8.4399372  73.8336134  11.3002968   9.8115927
  73.7500954  17.4009180  11.5192688  73.6897087  18.1758797  12.0778561
  73.7706327  17.7491713  10.6279051  70.7409525   6.2329680  25.5870700
  69.9662447   5.6833208  25.4689670  71.3755846   5.8908713  24.9574351
  79.1399622  40.3829145  51.5208721  79.0094757  40.1146126  52.4303865
  79.9608135  40.8751726  51.5317822  73.1738758   8.3697259  27.6203465
  74.1030312   8.1897736  27.7635789  72.7580452   8.1628293  28.4573126
  43.3996201  17.0725095  23.3073974  44.3225861  17.3126972  23.3891344
  43.3363104  16.6533530  22.4491835  81.3838196  41.6439247  26.4412427
  82.1433640  41.3404226  26.9384432  81.7091942  41.7489338  25.5471849
  19.0389943  23.5267544  10.4427111  18.5892892  24.3678951  10.5232143
  19.9427152  23.7579060  10.2280235  69.3883562   0.2658221  24.1946936
  69.6369362   0.2530008  23.2704234  68.5170126   0.6619544  24.2028999
  74.8892593  31.0212874  37.1802807  74.1310692  30.4879832  36.9416094
  74.5896101  31.5444589  37.9237413  74.1670322  48.1731510  26.9041610
  73.3655310  47.6557922  26.9826937  74.8741198  47.5383568  27.0194674
  43.9116144  29.6175122  19.8823094  43.2574606  29.2196012  19.3078697
  44.1330862  28.9272308  20.5073643  79.6009302  31.1753440   3.2582045
  80.4917812  31.0655499   2.9256982  79.4969559  30.4736066   3.9008442
  58.3014774  64.3768740  47.7371740  57.8025198  65.1779842  47.8968477
  58.4355497  64.3630791  46.7895126  60.4474926  13.4251106  18.2236564
  60.8507967  13.5953617  19.0748858  60.9668827  13.9391744  17.6054299
  52.3623896  12.9745138  59.5701838  51.6266537  12.3641372  59.6187496
  51.9739532  13.7939584  59.2638206  10.7517767  56.3950682  33.4202790
  10.9021747  56.1477661  34.3326688  10.4130399  55.5997372  33.0092645
  80.4830742  46.3123465  43.0223465  80.1117897  45.4437113  43.1767797
  80.9007740  46.5451574  43.8515377  73.7583494   8.0409026  38.8920474
  74.2348623   7.2257489  38.7349129  73.8567162   8.1986541  39.8310184
  27.4482346  45.1343250  16.0604846  28.2286787  44.6930599  16.3957846
  27.5525880  46.0458374  16.3334131   0.5048698  50.8258724  63.6293125
  -0.4043367  50.7299757  63.9128256   0.4524245  51.3489962  62.8294182
   3.4721601  24.2088485  21.5433192   2.9134089  24.0264511  22.2988057
   3.0078331  23.8193703  20.8024144  36.7131400   2.5802445  49.4022703
  36.1095905   2.5620601  50.1449871  36.1759162   2.8677878  48.6640692
  10.0292778   3.2439363  30.4712677  10.0068879   2.3800661  30.8829212
   9.5378101   3.1341606  29.6572423  19.3744850  68.2171440  60.8851433
  18.7854362  68.1327438  61.6348934  20.1641083  68.6209917  61.2451935
  23.4657335   9.0709621   7.4548841  23.1376553   9.3083560   6.5875661
  22.7177095   8.6621547   7.8902757  34.0413499  77.7623749  59.2023182
  34.5240355  77.9510498  60.0070858  34.3077612  76.8739033  58.9659500
  24.3747735  59.7243404  66.5223360  24.1667485  59.2278528  67.3138285
  25.2105355  59.3637657  66.2261629  45.5222702  26.9124079  12.8024256
  45.4031563  26.1434865  13.3599246  44.6684122  27.0440435  12.3903179
   7.6038277  61.2652254  54.3572187   7.6101911  62.1386576  54.7487593
   7.0225757  60.7544088  54.9206400  67.4017906  77.1514845  21.9350600
  67.6701880  77.6812696  21.1843753  67.4626541  77.7466583  22.6822543
  17.1190953   2.7651671   5.2619451  17.8758025   2.7993640   4.6767479
  16.5454245   3.4663194   4.9528831   9.1990954  23.4710789  15.2452958
   8.3486789  23.6109424  15.6617844   9.7844267  24.0896869  15.6822670
   7.7735239  73.0179071  67.3725796   7.3613822  73.5629034  66.7022419
   7.6611859  72.1218824  67.0551634   3.2046634  18.2791698  62.8164530
   2.9840788  18.9894307  63.4190321   2.4955793  18.2816684  62.1734715
   7.8017783  33.6406684  15.4900599   8.5493016  34.0125465  15.9581912
   7.4743629  32.9527926  16.0695922  10.5217826  44.7314453  38.9405680
  10.5048120  45.0788641  38.0488038  10.7362461  43.8048506  38.8325834
  38.5504293  39.8041129  67.0543528  39.0014052  39.8380351  67.8979778
  39.2167187  39.4987249  66.4386988  21.6317081  76.6995096  56.4740324
  20.7948112  76.2368584  56.4317322  21.5900588  77.3356724  55.7600355
  27.5134683  42.4567461  39.7466373  27.4933743  41.9263458  40.5431986
  27.1654630  41.8803692  39.0662599  40.6099892  59.0904427  25.1833415
  40.5559683  59.9866533  24.8514938  40.0580025  59.0909243  25.9653544
   5.1480818  39.7976995  55.1966238   5.4038197  40.6871080  55.4411316
   5.4737800  39.6920133  54.3027687  63.1428814  35.3071451  34.9645448
  63.3978748  35.9992552  35.5746198  62.2690201  35.0436497  35.2529311
  12.5745022  76.2847948  60.4097414  12.3734617  75.3758335  60.1870251
  12.1881211  76.7965984  59.6991062  24.2499375  13.4535956  26.2660027
  23.3556676  13.7702239  26.3935184  24.1551828  12.6926124  25.6931520
   7.8443944  59.6834564  22.6331353   7.9413122  58.8218021  23.0385828
   8.0027139  59.5291090  21.7018223  50.1419687   4.5222506  59.7883368
  49.5083237   4.5196393  59.0708971  50.3133535   3.5962766  59.9598932
  30.2812743  34.0069056  65.2857685  29.9284363  34.3108201  66.1220551
  30.0846791  33.0702591  65.2690649  74.9019194  53.5242367  25.8442354
  74.7050667  52.6061726  26.0303497  75.4432011  53.8072968  26.5812039
  14.1587961  58.1407785  41.6225767  15.0750601  57.9578447  41.4146614
  14.1974938  58.7960720  42.3192263  59.2306614  69.3872643  12.5480008
  59.4472504  69.2991924  11.6197968  60.0605345  69.6152401  12.9670084
  73.0446148  59.6242094  55.1703072  73.8096189  60.1964474  55.1107740
  72.3915100  60.0379705  54.6059561  70.4224253  30.9700203  10.7755625
  70.6032610  30.0614738  11.0165417  70.5938148  31.0068822   9.8345524
  58.2801914   9.9076891  30.6932712  58.1074429   9.5223802  31.5522981
  57.7070904   9.4273782  30.0956988  19.2281103  65.0025368  44.3574905
  19.1416895  65.9294748  44.1348934  18.3368993  64.6581602  44.2993689
  76.0124731  41.0151148  11.8700826  76.9362354  41.2124395  11.7152858
  75.8759451  40.1647472  11.4523911   2.6137266  37.6092005   7.1450770
   3.3439815  38.0304480   7.5984108   3.0164316  36.8890834   6.6598040
  14.4612467  35.4326177  19.1730535  14.6330845  34.6416831  18.6620474
  14.0898991  35.1110268  19.9945831  17.4784422  45.4067612  17.1274090
  16.8789268  46.0918474  16.8316579  18.2608557  45.8794117  17.4114227
  25.5801463  36.1813235   4.7407785  24.7082567  36.0224628   4.3791154
  26.0823750  35.4007840   4.5067769   2.4833734  46.8627834  43.2981920
   3.1350097  47.0693684  42.6281738   1.8893623  47.6133585  43.2940769
  47.2461891  63.0864239  63.4440327  47.4515486  63.9975595  63.2345343
  48.0969858  62.6484537  63.4675646  67.3143625  64.6542120  34.8200035
  66.6833353  65.3398848  34.6011543  68.1689882  65.0592327  34.6723223
  69.0060091  36.4366412  38.0388594  68.8091373  35.9367728  37.2466445
  68.3183908  37.1012783  38.0797601  42.5624132  37.6589942   9.4612288
  42.9904699  36.8429065   9.2023832  43.2717514  38.2038760   9.8020679
  29.5129728  37.0871687  13.6962664  29.9040151  37.3940682  12.8782630
  30.2469015  37.0374250  14.3087244  39.3032455  24.3624020  10.8363569
  40.1481104  24.1478229  10.4408956  39.2697453  23.8318777  11.6323805
  49.3748140   8.9410853  53.8809967  49.1625452   9.7941124  54.2598343
  49.7751951   8.4525484  54.6002054  33.8253140  24.2816019   4.2113128
  33.7221527  24.8839974   3.4746259  33.7432432  24.8359609   4.9873164
  28.0338836  37.5480247  66.8335104  27.1159554  37.4503827  67.0867062
  28.0152583  37.5920820  65.8775043  67.9575014  45.5585146  41.9456720
  68.3428049  46.3594294  42.3010731  68.1899214  45.5724478  41.0172224
  78.3068562  64.9691677  42.8279161  78.0594397  64.0710258  42.6080036
  78.5328960  65.3679132  41.9875956  18.8126707  10.8484089  34.8390627
  19.1313827  11.4198494  34.1404152  18.1420815  10.3089690  34.4200802
  14.0885735   3.7747753  55.3980398  13.3365989   3.7446713  55.9895325
  14.1476595   2.8888384  55.0404692  41.3711691  37.5197196  12.4203098
  41.5939140  37.5465751  11.4897740  40.8301544  36.7357206  12.5145555
   8.7777603  15.2821362  36.3595796   9.5108044  15.7002914  36.8112707
   8.5839969  15.8658373  35.6261086  25.3796673  22.5237250  64.7654915
  25.4254222  22.9470372  65.6227779  25.5443215  23.2298613  64.1405964
  68.7210608  50.9580803  18.0713010  69.0443993  50.1030159  18.3551049
  68.0605316  51.1927652  18.7231100  80.1912785  60.9657049  53.9083052
  81.1015892  60.7430649  53.7133789  79.9180412  61.5189505  53.1765318
  69.0281916  10.9730470  67.2998428  69.6653557  10.2985680  67.5350618
  69.5193958  11.5863514  66.7532063   4.9196941  71.7133141  59.1476154
   5.8325243  71.9593143  59.2974710   4.6667427  71.2379169  59.9389744
  76.3577271  75.9058189  58.9337873  76.8506527  75.1080179  59.1255379
  75.5617714  75.5973244  58.5007620   9.1658843  30.2043724  62.2504854
  10.1032126  30.3297305  62.1023893   9.1139764  29.4373202  62.8207207
   4.8651522  22.1001506  54.7317839   5.2429193  21.4745283  55.3499460
   5.5956906  22.3476624  54.1649675  24.3653274  14.0165007  58.9011335
  25.0536942  14.6757531  58.8129997  23.5520196  14.5207977  58.9223003
  72.6154423   5.1087153  23.8161397  73.5132170   5.0966644  24.1479373
  72.6360750   4.5371559  23.0485940  13.9376938  37.3373103  64.9514055
  14.7155035  37.0097923  64.4997692  13.5046339  37.8972983  64.3071222
  47.7187538  47.8357267  17.7559984  46.9115829  47.5140238  17.3544741
  48.1381321  47.0522308  18.1116533  52.4479914  60.5872726   2.1272545
  51.4987803  60.4885960   2.0531470  52.6216221  60.5345726   3.0670983
   0.9667775  49.0527821  27.6035810   1.2819707  48.8088465  28.4738564
   0.1976014  48.5004330  27.4639010  62.3305893  15.9339380  10.2404559
  61.6945505  16.6436553  10.3298497  62.4433661  15.5998874  11.1303568
  37.2102213  44.5613050   2.2741410  36.5873480  44.1399622   2.8663668
  36.6807055  45.1784277   1.7691642  26.4624000  23.0387974  56.0070515
  25.9317660  22.5493312  56.6356087  26.2382984  23.9555454  56.1670065
   3.7023535  55.5061674  11.3131726   3.8821942  55.6699657  12.2389472
   4.5517296  55.6050396  10.8830369  12.4635172  32.5351644  62.6141167
  11.9129789  32.8917718  63.3112288  11.9689727  32.6986670  61.8110418
  31.8376970  25.7711482  47.7399349  32.5536823  25.8723259  48.3671188
  31.7853594  24.8278046  47.5863218  18.7606466  60.2299690  34.7572732
  17.9251230  59.7996187  34.9387455  18.5237598  61.0131645  34.2605686
   7.2678280   2.9242703  16.8746483   7.6970184   3.4175313  16.1755633
   7.4956608   2.0114410  16.6983926  71.4454412  60.3931379  51.9957685
  71.0567379  59.8804903  52.7045298  71.5394306  59.7713566  51.2741137
  59.6121168  19.7616792   5.5330729  59.3033648  19.1474879   4.8669842
  59.6555805  20.6039786   5.0804430   5.0909573  11.4588809  58.3439779
   4.3254772  11.9584036  58.6281395   5.5840844  12.0681441  57.7945614
  51.2829971  20.9511232  19.1710520  51.9730806  20.3008914  19.0398419
  51.2738895  21.1033535  20.1160264   5.5513906  34.1587353  60.0307703
   4.9813297  34.7347736  59.5214176   5.1504141  33.2932520  59.9508524
  17.2816575  34.6564579  22.7716398  17.5671375  35.4803491  22.3767567
  17.0199621  34.1127348  22.0285964  68.9095211  40.3303814  21.6647506
  69.3613815  40.9609747  22.2254705  68.2763004  39.9058652  22.2435832
  61.4659500  55.0934935  17.1677470  60.9062195  55.7027817  16.6863942
  61.7980623  55.6051064  17.9054356  42.9334354  68.5877752  28.4595919
  43.3968687  68.8761902  29.2458987  43.3272886  69.0950584  27.7498245
  57.2721958  75.8903360   2.7121684  57.1099997  76.0436344   1.7813501
  58.2260942  75.8857679   2.7914995  81.6593742  22.1142435  40.7999468
  81.8381119  23.0396891  40.9667873  81.2032032  22.1063161  39.9584770
  76.8390274  18.9877796  22.7778149  76.0556173  19.3554759  23.1868410
  76.5240097  18.2154250  22.3082757  24.6750736  26.3498926  60.0650740
  25.0032043  25.4605889  60.1981163  25.1723671  26.6791749  59.3164062
  66.3410378  28.5482287   6.6148901  66.9539499  27.8420711   6.8196154
  66.0070276  28.3306837   5.7446355  81.0477066  27.3663354  54.4064474
  80.3977680  27.3489475  53.7039518  80.8032131  26.6377211  54.9770403
   1.1703971  30.7738256  48.0534267   0.7818419  31.1793947  48.8285208
   0.9860124  31.3887668  47.3434401  43.8707256   7.8324586  40.6707668
  43.2076406   8.2872182  40.1514006  44.0653229   7.0402133  40.1700592
  27.1202612  40.6558990  26.5406084  27.3928785  40.4504681  25.6463432
  27.2552109  39.8415279  27.0251918  61.2575245  27.4459958   3.2554665
  61.7032719  26.6046834   3.3541292  60.5119562  27.2566700   2.6858017
  53.6517239  23.2649446   2.5268102  52.7527905  22.9508662   2.4293235
  54.1034985  22.5585532   2.9884800  63.2425833   7.8099483  12.0011878
  64.0885448   7.3643845  11.9558549  62.9415226   7.8452641  11.0932517
  59.5200443  26.8425798  20.6134152  59.4470310  27.6645231  21.0985017
  58.7407827  26.3464689  20.8641267  16.3610327  69.6558237  26.9293427
  16.6705525  70.3809071  26.3864970  16.4067292  69.9906158  27.8249168
  79.8847771  68.0132961   0.7991821  79.9101496  68.2906008   1.7149836
  80.7801723  68.1403446   0.4855653  70.5828857  16.5236509   0.8419131
  70.8664942  16.2788415  -0.0389209  71.2483835  16.1507642   1.4200985
  23.2060885  17.9720521  59.3600655  23.2121468  18.2554376  58.4457970
  22.8383946  17.0886588  59.3345690  76.0155392  18.1351590  30.8363223
  76.0289907  17.2313643  30.5213523  76.8931627  18.2784319  31.1905646
   0.9497426  77.9074574  57.7264214   1.4307798  77.2768259  58.2622719
   0.9520843  77.5266075  56.8482542  80.9197044  29.7224331  32.5844669
  80.7486153  28.7830114  32.5177622  81.5534115  29.9004149  31.8895125
  13.1625235  63.0938482  62.2884035  13.3136392  63.9466333  62.6960278
  13.0056894  62.5013638  63.0236530  81.2611294  53.2694721  11.3794863
  82.2101688  53.1790590  11.4654517  80.9971142  53.7687206  12.1523237
  52.9255676  30.5404782   6.9004774  53.0365992  29.6638727   6.5324193
  51.9847679  30.7071567   6.8425828   6.8456960   9.7021765  15.3581202
   6.8699145  10.6533563  15.2537024   7.7637762   9.4480628  15.4518569
  40.1518679   0.0118211   2.6147315  40.6096363  -0.2445189   3.4153381
  40.7461357   0.6274581   2.1857005   9.9747264  53.7988853  33.0472469
  10.4343235  53.0473375  33.4216547   9.0592772  53.5226154  33.0041075
   4.8439169   7.0697379  59.8224401   5.6217176   7.5822568  60.0428534
   4.2198059   7.7135986  59.4875383  48.9879942  69.2453575  12.8459692
  48.2810211  69.8414087  13.0932355  48.5888338  68.3757973  12.8736615
   5.7954878  37.7304769  61.7217827   6.7437345  37.8462648  61.6613436
   5.5013251  37.6846695  60.8120584  24.5269108  46.6705513  16.2294054
  23.6233521  46.9864511  16.2247467  24.5677614  46.0509109  15.5009770
  34.0130568  57.1406078   5.4034662  33.7864637  57.9736042   4.9899396
  34.7338533  57.3553801   5.9955436   9.2001647  75.3774691  12.4045670
   9.9288219  74.9619102  12.8656530   9.6176118  75.9093571  11.7270219
  55.6355810   7.5735646  17.5581443  56.0392094   6.8086725  17.9683340
  56.0484076   7.6289725  16.6963243  16.2843823  27.5987959  22.2974801
  16.5187812  26.9114161  22.9210162  15.3790283  27.8208208  22.5148988
  11.1901009  29.3868661  44.2983484  10.2996016  29.5329475  44.6175718
  11.1154187  29.4438291  43.3457661  46.7671824  70.6224489   3.1023842
  46.8676662  70.7196665   2.1554507  47.0581818  69.7287464   3.2836199
  37.7438617   9.8865342  43.5952234  36.9763231   9.3165106  43.5484314
  37.4283457  10.7383466  43.2933998  71.0746908  76.0509968  29.0423489
  70.5934715  75.6115341  28.3412576  70.4325581  76.6372252  29.4426417
  17.4080145  31.5074372   5.7785887  17.3096287  31.2508655   4.8616797
  16.7096949  31.0380197   6.2349099  37.6857042  60.3801012  15.9523773
  36.9834280  60.9106445  15.5761218  37.2334266  59.6546125  16.3828921
  27.0402336  23.6861253  12.4419653  26.4832759  24.4579291  12.5436854
  26.7442536  23.2830596  11.6257751  10.7199728   2.8856635   2.2415757
  10.3809071   3.7447891   2.4929105  11.6567051   3.0282298   2.1057852
   3.7943670  76.9917965  25.5314898   4.2132694  76.8944979  26.3866425
   2.8854728  76.7302132  25.6788635  22.2491169  20.9757113  61.5323257
  22.9667783  21.0626912  60.9049273  21.5933132  21.6063976  61.2350225
  27.6947832  13.1837821  58.6189270  28.4027982  13.4630406  58.0384445
  27.5558400  12.2621298  58.4010220  37.5398850  58.8037729  63.8190556
  38.4010506  58.5144186  63.5175562  37.7269554  59.3835211  64.5573854
   7.4666816  63.8508844  47.8870440   8.0555570  64.4085693  48.3954191
   7.3386353  63.0760908  48.4343338  26.4159060  31.6595459  15.1053691
  26.9040227  32.4245524  14.8008418  26.8349624  31.4217162  15.9324479
   1.2655582  26.8909478  33.5153627   0.6977905  26.9051695  32.7448630
   1.6519995  27.7661943  33.5443068  34.7318784  27.3900321   0.1532899
  35.5734340  27.7911236   0.3704177  34.1239826  28.1269028   0.0923310
  46.2010050  66.3794470   2.7803424  46.9708109  66.2398005   2.2288588
  45.5852938  66.8490696   2.2176844  34.0503383  22.6563644  65.3235102
  33.8099909  21.7382407  65.1989555  33.2165146  23.1055474  65.4620981
  76.4671564   9.6590251  43.1602716  75.8447123  10.3716135  43.3052349
  76.3485765   9.0804708  43.9135599  16.6698015  26.7733836  64.8642349
  17.0945454  26.1145902  64.3148565  17.2048998  27.5592017  64.7529221
  39.2226124   9.5623201  11.4729953  38.6222243  10.1933956  11.8698692
  38.7182760   9.1660619  10.7624638  41.8641054  77.1826716  44.5782137
  41.8484699  77.4775103  43.6676884  41.9886457  77.9836800  45.0872374
  37.3683095  55.3551292  64.9645090  37.7201033  56.1354542  65.3929615
  37.9613280  54.6505976  65.2256441  67.9359388  31.1018157  60.5882883
  67.4836922  31.6727471  59.9672031  68.2432127  31.6921091  61.2763023
   5.5313009  16.4374399  21.9401479   6.1466897  16.8748236  21.3517404
   5.4026824  17.0585942  22.6569867  77.7083588   6.7583317  39.1838956
  77.4567986   7.6811868  39.2197752  76.9806814   6.3290429  38.7339759
  41.7601347  15.5169094  51.1684608  41.8395805  14.6122098  51.4708471
  42.4965191  15.6343937  50.5683231  21.9807696  33.6195374  53.1928778
  21.9914293  33.9481020  52.2939014  22.4239659  34.2986846  53.7013769
  17.7139628  44.4997835  39.4312167  16.7578459  44.5257759  39.3938494
  17.9610145  43.8382006  38.7850690  26.8262672  18.3648479  25.0132966
  26.5158296  18.4244847  24.1097999  26.0504961  18.1192768  25.5173850
   9.4993132  32.6089048  44.7666454  10.0918317  33.1710839  45.2657509
   8.6958265  32.5865102  45.2863932  43.9512777  61.3340044   3.0443534
  43.0931187  60.9984207   3.3035395  44.5428371  61.0391903   3.7367231
  79.3294668  14.9977982  61.9380569  78.7650728  14.2461288  62.1188354
  78.9028263  15.4477739  61.2088585  10.4340613   1.9762157  10.8089888
  10.6919765   1.4415015  11.5598500  10.7838321   2.8458804  11.0028338
  63.1991673  57.5064135  14.9244893  62.5678778  57.6388597  15.6317139
  62.9753828  58.1735849  14.2756188  17.7121186  35.0142455  17.8198910
  17.0352805  34.3735933  18.0382609  17.2933042  35.8631015  17.9622650
  53.9137936  66.0361338  17.5759804  54.7347212  66.5175390  17.4732447
  53.2597637  66.7126465  17.7514958  41.9621420  54.2000628  15.1329815
  42.0190859  54.6349907  15.9837592  41.6390848  53.3217621  15.3341317
  40.2828455  53.5672855   5.0593132  40.5637407  52.8176880   5.5841297
  41.0743093  53.8481760   4.6000558  58.7444353  76.7560196  30.2145219
  57.8966856  77.1951866  30.1460814  58.5656786  75.8497906  29.9634838
  34.3292618  59.9416304  60.2024603  33.6289001  60.5771875  60.0548220
  34.4589758  59.9441481  61.1508274  63.3220863   1.1426439  10.9893048
  64.0645170   1.5214890  10.5186582  62.9697943   1.8682128  11.5047371
  47.4140692   4.3356115   3.7331942  48.1170750   4.5150644   3.1088424
  47.1203089   5.2008528   4.0183133  41.9077778  77.1609831   8.5740185
  41.8661022  78.1160688   8.5259873  41.7594433  76.8692303   7.6745129
   8.4778857  16.2533069  63.0278254   7.7116549  16.7698157  62.7781439
   8.4927619  15.5290556  62.4021482  27.4556971  52.0686293  56.1988449
  27.9418492  51.3160324  55.8619690  26.6126323  52.0308590  55.7471275
  63.7516165   5.4599410   9.6449447  62.8212833   5.2692235   9.7647071
  63.7807178   6.0443950   8.8874495  70.2888012  41.7027760   2.0559570
  69.3997478  41.3509703   2.0107216  70.6090832  41.6609240   1.1549008
  30.1153564  36.5816569  59.6695852  29.4775510  35.9820318  59.2824316
  30.7945085  36.6730905  59.0012836  74.5625019  61.3149118  25.7269502
  74.1913509  61.7287064  26.5062118  75.0560236  60.5675125  26.0646820
   6.0455471   8.8848054  65.5399704   5.2534992   8.4564483  65.2153158
   5.7836396   9.7938782  65.6856489  20.7758808  20.4400969  50.4153919
  19.8624229  20.2941275  50.6614017  21.2750244  19.8656678  50.9960127
   9.1035652  26.3401937  51.7216301   8.4392083  25.6829667  51.9287872
   9.0537947  26.4396715  50.7709169  67.0281076  73.8837719   2.0222142
  67.7741528  73.8552380   2.6212463  66.2801695  74.0947914   2.5810418
   8.3447372  77.4788178  52.4030495   8.4080540  77.4073758  51.4506245
   9.1820871  77.1445364  52.7245045  81.5701294  19.9970138  58.3411503
  81.3227272  20.7574344  58.8672543  82.4380875  20.2135444  58.0005693
  60.6912899  46.6558456   5.7031155  61.4668941  46.3576317   5.2279919
  61.0304737  47.2713089   6.3530338  40.7662821  63.0284119   8.1551075
  40.7392263  63.8273811   7.6286578  39.8487878  62.7722549   8.2489896
  81.4314270  67.7554512  66.1802197  81.8547630  67.0044470  65.7642651
  82.1528816  68.3432007  66.4044619  30.2308083  54.3250418   8.8339078
  30.3511810  53.4745312   8.4115648  29.3576884  54.2776537   9.2233264
  61.9607115   8.6647731   4.2774472  62.7060795   8.7244684   4.8750204
  61.2090015   8.9359742   4.8043334  22.0428991  28.4953952  58.0827761
  21.2628698  28.1932640  57.6174784  22.1437383  27.8780508  58.8073111
  60.6676102  73.0817652   8.6408693  60.0643492  72.6267862   8.0532455
  60.6679344  72.5539207   9.4393760  77.7520132  36.3870478  65.5201674
  78.3482885  36.0172677  66.1712837  77.1854639  35.6565213  65.2720165
  12.4865866  34.3534493  42.2095299  12.9645026  33.5705996  42.4833393
  11.6424930  34.0233326  41.9016981  63.8906908  12.2675204   5.5047607
  63.0059958  12.1996176   5.8638459  63.9445019  11.5578437   4.8646870
  80.2158260  10.7145524   2.9460338  80.5499268   9.8255193   3.0653235
  80.7422543  11.2499225   3.5397410  57.4226952  67.5970793  36.2296462
  56.9029856  67.3240662  35.4736042  57.0227003  67.1435261  36.9716215
  45.8008003   3.0746961  48.5154057  45.4819155   3.9208251  48.8294268
  45.0874186   2.4649422  48.7038708  17.7906537  54.8631716   2.5139412
  17.6183188  54.1860390   3.1681722  17.3064232  55.6272793   2.8268188
  77.8027380  -0.1332470  14.8925102  77.4979390   0.4945759  15.5476189
  78.0746592   0.4074243  14.1509140  56.3327456  76.6332626  52.8193998
  56.3277245  77.5856686  52.9149389  57.2352076  76.3780928  53.0109262
  69.5646763  33.9388084  56.0688496  70.2232265  34.2397332  55.4427624
  68.7925911  33.7540126  55.5340910  78.3650351  21.3552475  47.1621752
  78.2523918  22.2818017  47.3744059  78.2831621  21.3161230  46.2092876
  43.6832094  10.7357907   9.6326089  44.4501495  10.1636016   9.6074033
  42.9453945  10.1415002   9.7692639  40.7479191  46.3311386   8.3405340
  40.5048609  45.6337500   7.7315962  41.2328386  45.8847618   9.0346777
  23.0172133  10.0387347  52.5059366  23.7827206  10.5339086  52.7975368
  23.1051135  10.0007093  51.5535402  69.8578930  48.1568384  17.6677871
  69.5622778  47.5677538  18.3619237  70.1773071  47.5740194  16.9789255
  37.6919222   0.3226214  21.2063313  38.5301852   0.2629730  21.6645741
  37.6989007   1.1922688  20.8064604  25.7277703  54.2063046  41.5573740
  25.8114672  53.2726097  41.3638830  25.7422709  54.2550659  42.5132179
  65.2990913  41.8891573  51.1284971  66.0865831  42.0340109  50.6039906
  65.4620361  42.3664474  51.9420528  36.6351080  21.2082314  11.8826497
  37.0704985  21.1729598  12.7343667  37.2572064  20.8027291  11.2786686
  11.9692063  35.5932736  65.9188795  11.8746233  36.1855578  66.6648579
  12.6280951  36.0104656  65.3638554  17.4163175  52.4586391  51.2777853
  16.7763615  52.4597883  50.5659628  18.2423449  52.2204828  50.8568430
  17.2072148  22.2389340  51.3822365  17.5628054  21.3593841  51.2550354
  17.3414922  22.4193239  52.3126459  67.4191284  55.7855368  21.6899490
  67.9682446  55.6865120  20.9121990  67.5327492  56.7001295  21.9484973
  48.5958147  12.9785132  42.0642328  49.3958235  13.3565009  41.6990709
  48.7672663  12.9169345  43.0039358  23.3339524  29.5408082  52.6860523
  23.5896063  30.4376698  52.4703884  22.4848962  29.6312404  53.1186676
  62.9844856  29.5069814  49.5509291  62.8515530  29.9213648  50.4034805
  62.7944088  28.5811496  49.7023821  72.9117870  32.0069718  57.9996872
  72.0050859  32.3010945  58.0869627  72.8883123  31.3659525  57.2892141
  33.6943579  39.3126917  19.1776431  33.9076376  38.4603643  18.7977970
  34.5337057  39.6543407  19.4858730  57.2846031  73.0501986  22.8599811
  57.3961115  73.7106371  22.1761513  56.3445997  73.0487967  23.0406070
  15.9207737  10.3701818  51.8810034  15.4123878  11.1804485  51.8457508
  15.9506142  10.0664914  50.9737444  56.5165854  47.8690958  11.2970984
  56.7564392  48.6281157  11.8286896  56.7901039  47.1149206  11.8192446
  53.5512924  44.2643690  55.5359983  53.4977865  44.7988605  54.7437286
  52.7892494  44.5255327  56.0530233  22.4905133  20.1956630  64.2885685
  22.1980214  20.2178025  63.3774233  22.8629899  21.0640168  64.4417143
  14.0120828  75.8460236   8.6959881  13.1094849  76.0463810   8.9437860
  13.9860177  74.9311972   8.4155512   5.2882451  37.8081536  44.1459179
   4.5645893  37.4182606  43.6554718   5.1721871  37.4868178  45.0400686
  48.4114885  29.1907978  55.9554577  47.4715567  29.2272472  55.7781744
  48.8197708  29.2210817  55.0902319  46.3080645  35.8299923  53.9482594
  46.4652443  35.3208899  54.7434568  45.8945465  36.6359138  54.2576599
  41.0788536  23.2375717  63.1222439  40.2633619  23.7369752  63.1646872
  41.1198616  22.9221916  62.2194242  64.7703981  31.4192319  13.1445110
  65.4196692  30.7393479  12.9644275  63.9796495  31.1202002  12.6955891
   6.8830639  15.3823042  38.2163143   7.5636721  15.3419781  37.5444674
   6.4078373  16.1914790  38.0275607  18.3030224   3.9055112  52.6365805
  17.6306629   3.8478661  51.9577265  19.0510726   4.3118224  52.1989012
  27.0298028  65.0016928  53.3687830  27.8231740  64.6618748  53.7826872
  27.0292473  65.9348297  53.5820580  47.6242399   5.2939647  11.2890601
  48.3734417   4.6985161  11.3081241  47.1126366   5.0110126  10.5311465
  73.0529737  11.6977215  36.0001731  72.6724339  12.5154459  35.6796336
  73.8140774  11.9720721  36.5117240  16.5792847  44.0808964   5.6850564
  15.7367933  43.9398575   5.2531439  17.1028888  44.5555925   5.0395066
  76.6657114  20.5096769   7.7550274  76.8947172  21.0846877   7.0248574
  76.5080118  19.6575594   7.3485053  64.5258522  26.1981177  64.1844082
  64.1187477  26.6998911  64.8906088  65.1782227  25.6524229  64.6235657
  31.9657445  77.2323608   9.6131414  32.5575829  77.9660177   9.4466728
  32.4772048  76.6297960  10.1530981   8.2690585  51.2578869  39.9868274
   7.7335119  51.9669676  40.3426743   8.6360008  50.8248949  40.7576084
  23.2177186  72.5335741  52.9783344  22.9549646  71.9011307  53.6470699
  23.7482309  73.1751633  53.4507227  53.3284521  73.1968546  32.8542233
  53.9620686  73.7256002  32.3692679  52.5932980  73.7891483  33.0122328
  30.1452112  76.0589600  57.6514006  30.5995321  75.2441120  57.8655148
  29.2836666  75.7787704  57.3424292  20.9828281  15.8519125  64.8348665
  21.5698147  15.5338705  64.1489124  20.5689979  15.0614417  65.1814651
  58.3979845  73.0993700  17.3959994  58.2702446  74.0018177  17.1035993
  58.1026506  73.0985308  18.3064985  57.9788733   7.9919076   2.9101560
  57.6681614   8.7342674   3.4284151  57.1806622   7.5398719   2.6367405
   5.8981663  74.7427607   1.1075903   6.2106133  73.9003277   1.4376101
   4.9746421  74.7703743   1.3577354  23.1585503  58.6300564   7.1074778
  23.3218551  57.6965809   7.2423321  22.9578590  58.9667034   7.9807603
  69.0066385  61.7145205  10.1601338  69.7683239  62.0844078  10.6065035
  69.3325520  60.9097004   9.7572947  31.6613340  44.4073105  39.1904235
  31.0382223  44.4087982  39.9170327  31.8689895  43.4827900  39.0548730
  59.6433401  74.5437479  12.4763918  58.9825583  74.2463827  13.1018341
  59.1933823  74.5376730  11.6315651  33.7093854  18.4205818  36.3638592
  33.8251662  19.0800333  35.6797910  33.9843273  18.8596189  37.1687722
  23.3264613  39.2328787  59.3684816  23.4523582  38.9582109  60.2767467
  23.9295650  38.6845541  58.8666487  29.6185923  70.8563709  47.7250624
  30.1381564  71.3325357  48.3727932  29.8992300  71.2143517  46.8828487
  46.6125822  73.8661051  12.8885949  47.2918463  73.7929344  12.2181630
  45.8126783  73.5731125  12.4520898   8.6922807  52.4333906  21.8287921
   9.1204846  53.2627010  21.6163778   7.7872604  52.5502205  21.5397906
  75.7915115   2.9114574  20.7931638  74.8503971   2.9197145  20.9677291
  75.8650017   3.1355086  19.8654616  79.3045807   2.4161907   0.7273656
  79.9793148   2.6076207   1.3787632  78.5540390   2.1172020   1.2407111
  27.9285622  11.7927182  41.3687229  28.1991816  11.6541398  40.4610920
  27.2282910  12.4429286  41.3132477  19.6618533  21.7899895  32.4574447
  18.7633526  21.9265223  32.1569657  20.1974487  22.3021722  31.8516064
  31.7481136  36.9137001  20.8130407  31.3063383  37.0174241  21.6558385
  31.7706084  37.7966690  20.4441381  50.8017588  50.4410172   8.5537940
  51.3332224  49.8213625   8.0539817  50.8476019  51.2549448   8.0521500
  72.2965384  72.0115566   0.1114878  73.0253077  72.0021152   0.7320003
  71.5137720  71.9680977   0.6606882  71.2469959  76.0407114  10.2410412
  70.6521177  75.6592703   9.5953983  70.6885242  76.2415123  10.9920549
  66.3920355  12.1464813  14.2437863  66.5945578  13.0737984  14.1200995
  65.5153275  12.0414281  13.8742149  22.0179081  10.2962303  56.9855738
  21.6199303  10.9725273  57.5337267  21.6240501  10.4248428  56.1226940
  82.1129894  13.5033321  17.4854290  83.0035686  13.8296735  17.6143336
  81.9820499  13.5325193  16.5376770  20.2999902  45.9038067  38.0329251
  20.5225968  46.4077044  38.8157177  19.4298089  46.2168980  37.7859664
  23.9503479  32.6843309  60.3731155  23.1735873  32.3680973  59.9117374
  24.5201755  31.9178009  60.4360676  25.4847358  49.1789398  67.1557086
  24.8608993  49.6720455  66.6228850  25.0349448  49.0467045  67.9902332
  77.4616671  54.8765039  47.2784615  78.2209921  55.3446388  47.6256037
  76.8171835  54.9078417  47.9854918   6.8074334  41.3913822  41.8449926
   6.9187158  42.2383308  42.2768831   7.4978137  40.8412552  42.2150850
   3.3318079  10.6102061   3.3590773   4.0781775  10.1020300   3.6767593
   2.6122487   9.9801672   3.3201256  68.1864977   9.0538961  15.0154841
  67.4326372   8.4961241  14.8236024  68.1253767   9.2241770  15.9554315
  16.3379812  36.7009735  63.8829947  16.7029583  36.2296391  63.1340837
  16.9812965  37.3838568  64.0728569  34.1325450  71.6328096  56.6762447
  33.6490464  72.2898388  56.1754656  34.5460868  71.0817385  56.0117626
   7.7416289   1.0300630  20.6462502   8.2824773   1.4308512  21.3267517
   8.3260071   0.4099693  20.2101088  67.2618437  31.2889647  15.8015072
  66.3734865  30.9722471  15.6379580  67.5160408  31.7209363  14.9860227
  18.6389840  28.1209087  67.1717644  17.9994345  28.7302351  66.8030787
  18.1677508  27.2904134  67.2384691  17.4931610  63.0994129  56.9540358
  18.3798873  63.4575653  56.9949389  17.4856043  62.4030066  57.6106882
  76.5191317  10.0909042  12.4500144  77.4420929  10.2481103  12.6491714
  76.1750984   9.6606821  13.2328176  55.1492786  59.1216421  64.7218037
  55.6028414  58.6196852  64.0446424  54.5524740  58.4924698  65.1270151
  54.9426126   9.8500359  44.1190910  55.1372480   8.9134097  44.0862274
  54.5151043  10.0353086  43.2829428  77.3526812  36.7304802  53.8478661
  76.6153193  37.2613072  53.5466099  77.0249367  36.2875128  54.6305513
  46.3647223  73.9878702   5.7550579  47.1464682  73.6939049   6.2226951
  46.4908266  74.9305058   5.6465530  62.4809408  72.8193235  15.1387310
  61.5622997  73.0855799  15.1007557  62.9349756  73.5773039  15.5068982
  56.3672972  62.7294588  11.0268724  57.1703196  62.2136736  10.9537041
  56.5909576  63.5767889  10.6418586  45.4523420  56.0799885  46.9835567
  46.3483334  55.7758760  46.8388414  44.9065590  55.3176832  46.7905664
  43.9897966  73.7456417  11.2215412  44.0875101  73.0705976  10.5499744
  43.2928944  73.4185076  11.7903483  52.9675436  70.6621647  31.8657613
  52.7711391  71.0679340  32.7101564  53.7008381  71.1711884  31.5202093
  34.4361615  18.8550401  17.9504049  35.1884437  19.4163704  17.7627647
  34.7601438  17.9653919  17.8097165  35.9750533  45.1033831  66.1275721
  36.1938429  44.1957331  65.9165382  36.5127659  45.6242704  65.5310965
  50.6584167  76.7463589  10.6512785  50.5380726  75.9508991  11.1699247
  49.7992563  77.1683168  10.6570601  80.0331116  75.3346395  34.0709758
  80.5279636  75.8526278  34.7058320  80.5091953  74.5061350  34.0147495
  73.2292795  35.4418349   3.8322505  73.3867264  34.4977546   3.8196570
  72.4584627  35.5635190   3.2779390  77.2353840  70.8956957  55.1516294
  77.7790594  70.9860086  55.9342480  77.0087481  69.9661398  55.1233959
  18.3613265  10.7703304  13.9734209  18.6322498  11.0472953  14.8487055
  18.6837590  11.4601564  13.3934116  39.5081496  23.5564470  60.4497814
  40.1419115  22.8409386  60.3985262  39.3118429  23.7683558  59.5372105
  62.6369715  30.6987023  47.1163940  62.7362919  30.2654862  47.9641533
  63.0054855  31.5720963  47.2491074  67.5161600  41.9223738  49.6966743
  68.0020285  41.6559124  50.4771662  67.7227354  41.2519455  49.0454578
   2.3981136  28.7279987  46.7678690   3.1718203  28.9577317  47.2824907
   1.6960764  29.2621803  47.1393871  50.5871201  71.5368509   8.3146012
  50.9356117  71.5892935   9.2045659  51.1909151  70.9534311   7.8549421
  21.5540385   4.3862635  13.9143515  22.1601176   3.9455539  14.5098972
  21.6846466   5.3187495  14.0865231  30.5216599  63.7944221  21.7689896
  30.5035043  64.3438959  20.9854198  31.3453722  64.0204620  22.2010016
   3.8976818  21.3151407  61.5552473   3.7858790  20.3648305  61.5298653
   3.4272227  21.5907216  62.3419857  49.7153997  73.3070421  24.3375158
  49.1495609  72.5927210  24.0445971  49.2331219  74.1025066  24.1119647
  52.9651356  26.4618969   8.8618469  53.7039804  26.2301946   9.4245631
  52.2821903  25.8318305   9.0917057  10.4485726  33.7406898  63.9919710
   9.8260689  34.3038225  63.5319662  10.6619072  34.2222762  64.7912169
  26.1271954  43.2468843  65.4653835  25.2360249  43.5576630  65.6249428
  26.0130739  42.3696280  65.0998354  32.0877790  28.2753372  50.0180864
  31.9033194  27.3886013  50.3277731  32.8085971  28.5770154  50.5709362
  39.6125997   0.0234321  58.0321312  39.3126512   0.7312826  57.4618578
  39.7950686  -0.7031533  57.4363041  30.8438516  39.0007758  64.3137646
  31.7850041  39.0803599  64.1584301  30.5429029  38.3813810  63.6489248
  57.6084185  41.1309767  13.2742298  58.3406162  41.6469288  12.9367232
  57.4888372  40.4341984  12.6289117  18.1236398  31.4800835  19.6733785
  18.5728836  31.1429596  20.4484653  18.6578262  32.2224140  19.3908489
  25.6598234  72.4993753  60.8412123  24.9553084  72.0892811  60.3394985
  25.3978872  72.3900318  61.7553616  66.2461424  28.0668306  48.6075687
  65.5110407  27.8760338  48.0249405  66.1686945  27.4213743  49.3101501
  23.8646054  69.7188330  57.9859400  24.6746135  69.2101479  58.0227566
  23.7052202  69.8480606  57.0509911  69.0282393   6.7258877  18.2237923
  68.8773108   6.9841206  19.1330600  68.1574726   6.7287117  17.8263152
  22.7573609   1.2547448  14.1623008  22.2221041   0.6223340  14.6416640
  22.7695608   2.0311731  14.7219813   6.8177146  30.9943867  44.5610428
   6.0555911  30.7908010  45.1032162   6.8663985  30.2717113  43.9352560
  26.6612983  60.3489542  51.0715294  27.6061940  60.3550959  50.9186697
  26.3338876  61.1007118  50.5776739  11.8344319  21.9035721  13.0236888
  10.9823191  21.4692068  12.9854250  11.9611537  22.2602320  12.1445036
  60.0608969  60.4179144  22.9434013  60.7079172  59.7422314  22.7407956
  59.9299765  60.8801079  22.1154714  18.9189816  41.2009859  22.2938466
  18.4414852  40.5577517  22.8177547  18.2945895  41.4731503  21.6213179
  16.7606163  27.5282526  14.1416407  17.4230719  27.0466352  14.6370459
  16.2755680  28.0192900  14.8048472  57.1864319  71.2161732  53.5016155
  57.8184986  71.4656353  54.1757822  56.5199709  71.9025469  53.5324192
  77.4240589   4.4551033  48.6589909  77.8172350   3.5828716  48.6882591
  77.6825809   4.8622268  49.4858217  58.3582497   8.8212228  18.0854285
  58.0925131   8.8001668  19.0047598  57.6965666   8.2982159  17.6328063
  55.2457809  23.5479712  66.5464401  54.9973345  22.9189324  65.8690786
  55.2161551  23.0466557  67.3613262  50.5023479  29.9514031  64.8424196
  49.5511055  30.0304914  64.7708988  50.6425905  29.4842172  65.6660128
  82.2136402   6.7741853  23.1203985  82.8415489   6.0527503  23.0817652
  81.4497185   6.4527279  22.6415205   6.4201814  63.7798309  60.7614565
   7.3489702  63.5483551  60.7597685   6.2717515  64.1684055  61.6235542
  43.0264950  63.8733530   2.4566039  43.5547352  64.3926764   3.0628172
  43.3292294  62.9743719   2.5847530   3.0379036  75.7611179  52.3912525
   3.9564255  75.8320713  52.1314144   2.9736617  76.2852669  53.1896067
  36.8177616  78.0371413  26.7132211  36.1986648  77.3121049  26.7985106
  37.4051057  77.7687107  26.0066772  49.5086956  17.3802924  36.4789605
  50.4305744  17.1425450  36.5781975  49.5062065  18.3374703  36.4850283
  81.3855743  30.8079624  13.7229288  81.2220478  31.2765074  12.9044199
  80.5209446  30.7161307  14.1231966  20.2475381  38.9937377  61.9330549
  20.0512242  39.8050117  62.4015951  19.5219147  38.4091210  62.1519756
  71.9959974  72.2378683  37.9224873  71.3842487  72.6593924  37.3189020
  71.4779425  72.0690298  38.7094712  42.5583839  67.0577669  14.0207720
  41.7525101  67.1888828  14.5203805  42.2933912  67.1625042  13.1069672
  71.9444561  57.3269081  16.2025523  72.6647425  57.5563002  16.7897499
  71.5156174  58.1612349  16.0122240  27.6772571  55.9999704  34.1918683
  27.0197988  55.6343842  34.7837496  27.7217317  56.9269085  34.4264746
  44.7898388  15.2965856  54.9753332  44.8797369  15.3151548  55.9281206
  45.6799555  15.4265702  54.6481895  32.9237103  56.5611649  63.5958052
  32.8870749  57.0033789  64.4439411  33.8546419  56.5459824  63.3736229
   9.8469228  56.1022234  60.1878262  10.1053452  55.3293037  60.6898689
   8.9796740  56.3275528  60.5244827  26.3151979  71.8952274  27.7499723
  27.2146177  71.5972853  27.6139259  25.7780313  71.2582302  27.2788882
  20.7610488  34.5214772  42.5377893  21.3665104  34.8254991  43.2139683
  19.9359953  34.9631381  42.7389193  71.2965059  72.8665543   5.2317041
  71.7730045  73.6556244   4.9737239  71.7803955  72.5304413   5.9860992
  47.5122404  68.4546375  62.0024681  47.2797966  68.0444479  62.8355026
  46.8053198  69.0784740  61.8371773  54.2030144  56.3769531  19.6064997
  53.4937286  55.9162283  19.1583049  54.0131569  57.3044157  19.4650805
  61.8159533   2.0254210  17.2642446  62.4235821   1.5129502  16.7309582
  62.3229551   2.2674650  18.0392265  16.8213141  49.8547220  60.3361893
  15.9884846  49.4903469  60.6359529  17.4510086  49.5992422  61.0103178
  18.4160948  12.6696157  19.3998146  17.9198825  13.3924675  19.7838593
  18.2781422  11.9380736  20.0015163  36.0094905  56.2654686   7.2677261
  35.9326673  55.3351736   7.0558780  36.3241386  56.2800884   8.1716138
  49.5609045  17.7427828  17.8220224  50.3305292  18.0408001  17.3371565
  48.8330126  18.2344508  17.4416745  30.9674716  19.1475582  46.9978333
  30.0601625  19.2053902  46.6983700  30.9004450  18.8840187  47.9155922
  66.5725040  25.2064681  61.6009998  65.7436705  25.5062604  61.2276506
  66.7993546  24.4305611  61.0884237  66.2402344  64.8538399  28.5627460
  66.0642624  65.5856991  29.1540599  65.5407858  64.8991060  27.9108596
  11.3573849  74.2956161  59.1012621  10.6762302  74.9369526  58.8989019
  11.2924564  73.6477852  58.3995962  48.9481115  65.5597496  65.9409380
  48.6892605  64.6384096  65.9599257  49.8983622  65.5439568  66.0549974
  56.3859320  60.8783007  25.5887556  56.2688923  61.7056513  25.1218224
  57.2283077  60.9714603  26.0336781  40.7400513  23.4747982  34.4193435
  40.4228592  23.7793779  33.5691357  41.6098070  23.1190848  34.2370820
  62.9404688   1.7838395  19.8724735  63.5680914   1.0728235  20.0020003
  62.7584124   2.1063739  20.7551169  46.4216471  50.9463930  10.8636642
  47.2709751  50.5159187  10.7658434  46.5554142  51.8241501  10.5060685
  27.2391820   0.9663385  21.1412144  27.6029944   0.1100339  21.3661909
  27.6011252   1.5605575  21.7985821  17.1937835  42.2341013  28.1815386
  17.5530636  41.6501570  27.5135851  17.6501632  43.0642605  28.0444956
  71.9694757  31.5634394  54.6373653  72.2423220  31.0681319  53.8650608
  71.1095428  31.2064338  54.8593760  31.6073895  16.8673956  36.2513804
  31.2041569  17.1480823  35.4298878  32.4377823  17.3423076  36.2851262
  72.0987225   8.6304808   8.1173581  72.3629999   9.4680154   8.4980488
  72.1627426   8.0075067   8.8412619   1.2145048  68.0778980  35.5764914
   2.1536124  68.1240559  35.3971100   1.1576087  67.7357531  36.4686418
  14.4665182  49.7604227  56.2108994  14.3469334  49.4332218  57.1024561
  13.5896444  49.7375727  55.8277512   4.7476324   1.7112495  12.1480811
   4.4829759   0.8692183  12.5184488   5.7043815   1.6819426  12.1461153
  17.4760377  57.3333120  65.2919626  17.0888186  58.1895494  65.1098776
  18.0887818  57.1893024  64.5708275  55.5556107   0.4214289  58.7409735
  56.1626244   0.6862703  59.4320774  54.9630308   1.1668724  58.6440563
  35.2486610  13.6409807  10.6500697  34.8115873  13.2495522   9.8937750
  35.3019071  12.9310238  11.2898803  63.7247324  52.3692989  31.1143088
  63.1545544  53.0764294  30.8124948  63.1231689  51.6773272  31.3891363
  57.7549314  73.2910824  10.8278155  57.1553898  74.0229988  10.6826210
  58.0167246  73.0178738   9.9485809  79.6175861  39.8952246  66.5296412
  79.0784836  40.2583027  65.8269501  80.5174637  40.0814438  66.2617445
  29.2450953  30.3751588  56.9162083  29.1064262  30.8852267  56.1181927
  28.3925772  30.3748846  57.3514605   1.0540250  45.8991814  37.9086566
   1.3251443  45.0824976  38.3278847   0.5227910  45.6206322  37.1627116
  11.2662029  48.6411667  45.5152416  12.1478128  48.8973713  45.2444029
  11.3237548  48.5541391  46.4667416  76.0620737   9.0586644  10.0112462
  75.2072430   9.0566093   9.5805562  75.8920956   9.4247550  10.8791840
   7.7957749  60.0896978   7.8082281   6.9067603  60.4426241   7.8446686
   8.1257075  60.3596830   6.9512069  58.5608435  18.6057091  47.6257277
  59.3777084  18.6989498  47.1355534  58.3293724  17.6816666  47.5319290
  22.5915003   8.6842108  50.0944138  21.9574428   7.9712427  50.1710844
  22.0559764   9.4713277  49.9949551  44.7329521  56.3090181  10.9380221
  44.3346977  55.5633926  11.3870943  45.4825115  56.5452385  11.4844561
  19.3548191  17.6240182   9.9684018  19.7495854  18.2826281  10.5399132
  19.8333836  17.7049828   9.1433853  79.0804148  43.5461617  24.0968275
  78.8098049  44.3799305  23.7123346  79.6295881  43.7926340  24.8410630
  52.1631336  72.3260021  13.8128603  51.6345072  71.5373421  13.6912215
  52.2007942  72.7254915  12.9438257  70.5518293  26.3694477  31.4059758
  70.4055309  27.2189331  31.8221545  69.6772480  26.0714769  31.1558700
   2.7411595   6.4224762  33.9316130   2.5304821   6.1253250  34.8167944
   3.6489731   6.7205411  33.9887381  17.6040292  32.6660204  60.3631592
  17.9412675  31.7957425  60.1507521  16.8150032  32.4979591  60.8783531
  33.5099030  39.1088486  55.7097149  34.3925142  39.2239261  56.0618305
  33.3334994  39.9212623  55.2352715   3.7712875  33.7081957  52.5029230
   3.7310994  32.9950333  53.1401157   3.2492602  34.4086552  52.8941727
  25.8350039   4.3253976  22.3774981  25.0937295   3.7732127  22.6261687
  26.1943364   3.9061022  21.5956378  50.3139782  14.8548603  17.8757834
  50.0391245  15.5037141  17.2279596  50.6343222  14.1179228  17.3556530
  41.9559526  34.5765305  58.2173681  41.9438791  35.5320835  58.1625700
  41.4955235  34.3775392  59.0326214  33.8874078  35.7645488  65.9411812
  34.4958997  35.1785421  66.3912582  33.0679250  35.6790400  66.4283848
  71.6998148  19.5147443  21.9768715  72.6398611  19.3710005  22.0858550
  71.5229034  20.3206277  22.4621415  64.2305660   1.9312359  24.1976929
  63.3460045   1.7506149  24.5157480  64.1217613   2.6622549  23.5894132
  72.0813656   7.6474929   5.4623616  71.9451857   7.7311462   6.4061254
  71.2876701   7.2182357   5.1429641  22.3297048  10.3966498  18.7914443
  22.8244901  10.6518197  18.0127871  22.9780173  10.3899169  19.4956291
  15.7954109  44.7385073  44.5710802  16.3022840  43.9511442  44.3726826
  14.9704623  44.4088173  44.9274492   1.6478637  67.4786043  60.0505161
   1.9919257  66.5878248  59.9844122   1.4976040  67.7452421  59.1435671
  71.8507147  52.1647596  64.8647594  72.1902227  51.6549444  65.6003237
  70.9247303  52.2938824  65.0699711   7.6945329  39.1666484  48.8874865
   8.1110376  39.4387412  49.7052383   8.0940580  38.3206797  48.6851263
  46.8889809  73.2198381  31.2568641  46.8941498  72.3509121  31.6583180
  46.3672018  73.7563086  31.8536735  63.5438538  17.2233117  40.4582310
  63.9305210  16.9906795  39.6140718  63.0776167  18.0422986  40.2905607
   3.7271482   7.8597111  46.3952208   3.4517720   8.3555788  45.6241703
   2.9353815   7.4053478  46.6831255  32.7943969  45.1655102  65.7968664
  33.0133796  44.2344522  65.7592583  33.6027884  45.5902910  66.0837412
   6.9909698  50.3789568  65.0355482   6.5190178  51.2066507  64.9438143
   7.0232779  50.2250385  65.9797382   9.0438271  52.0182323  29.4018078
   9.6305686  52.4287701  30.0369644   8.1652451  52.2512436  29.7018552
   1.5422463   6.9934398  13.2626498   2.2950739   6.4044344  13.2120991
   0.9940532   6.6226590  13.9541972  48.7328720  20.8831811  46.3002443
  49.5725155  20.4571223  46.4726067  48.8803768  21.3885689  45.5008364
  50.8126879  25.2473617  54.5848989  50.0227833  25.5230260  55.0499678
  51.4974737  25.2495980  55.2537012  31.9108486   7.8618509  63.4734058
  31.5179491   8.5775650  62.9737902  31.3600707   7.7828741  64.2522764
  64.3504429  57.6546621   3.6319375  65.2558756  57.8502131   3.3907306
  64.4245148  57.0599270   4.3782854   7.4487567  40.2739954  39.4504738
   7.7086264  40.8211613  38.7093210   6.9917458  40.8724737  40.0413990
  53.8673687  33.9636755  44.8032665  54.0759420  33.1803346  45.3122902
  54.6726274  34.1594982  44.3242645  12.8338337  41.5987444  17.5786531
  13.6631656  41.5862989  17.1008611  12.8098691  40.7597160  18.0387497
  20.0693536  25.5271697  12.9159057  20.1825452  26.4602518  12.7348661
  20.9546232  25.1656961  12.8727102   3.0296442   5.1389790  26.2117600
   3.7248665   4.4811034  26.2018728   3.4504944   5.9370124  25.8919811
  34.1463232  33.0031252  56.7861986  34.7213435  33.5284853  57.3426008
  34.5112395  33.0990028  55.9065008  63.0181742  17.4991167   4.4207847
  63.3152485  18.4067094   4.4859940  62.3881721  17.4014282   5.1347798
  19.8492944  77.1207952  41.3036633  19.6695685  77.9934406  41.6535521
  19.7786880  76.5398312  42.0611143  14.9637735  25.2262735  31.0660625
  15.0780332  26.0411954  30.5771065  15.7817292  25.1219201  31.5521622
  31.9213295  32.2054648   0.3244402  31.5032864  31.5168214   0.8413945
  32.7890611  32.3055100   0.7159340  71.5830898  27.3920083  24.9013615
  71.5425873  28.2802892  24.5470333  72.2704554  27.4305320  25.5664015
  20.0255942  30.6932235  21.7763472  19.7355521  31.3010287  22.4565506
  19.8971331  29.8256326  22.1597719  10.5980682  28.1782413  22.5410247
  10.1245654  27.3465800  22.5218868  10.5841041  28.4406757  23.4614420
  29.6670246  50.1543331  54.6787643  30.2490401  49.3984842  54.7574091
  28.7862277  49.7796011  54.6805048  38.9157200  24.3383813  36.3853264
  38.9486122  23.7909031  37.1698117  39.6234608  24.0073419  35.8323812
  63.4606409  47.9609728  64.0257454  64.1300011  47.7598333  64.6797562
  62.9942369  48.7158537  64.3847084   4.5238686  43.5982943  16.6349792
   4.1526270  43.8333941  17.4853551   4.4817916  42.6423120  16.6113091
  11.2900901  45.2049208  51.6758394  11.0580957  45.9780073  51.1612988
  11.9865251  44.7826529  51.1729479  75.8816624  39.1303468   4.6077514
  75.9194613  39.8950791   5.1821995  76.7301464  39.1213632   4.1647792
  69.8943186  20.9801865  41.5451717  69.6890306  21.9012403  41.3847017
  69.1630268  20.5005026  41.1561346  81.9680882  28.8548255   2.4784218
  82.6517487  28.2284951   2.2406271  81.2329197  28.3110023   2.7613002
  70.5528641  36.8070412  15.9298897  70.9659958  37.1525908  15.1385939
  70.9795284  37.2758579  16.6471052  59.3313646  15.0741541  25.0270772
  59.3153381  14.1195786  25.0960755  59.6211290  15.2446795  24.1308689
  44.3340158   4.5471787  53.9015198  43.4564972   4.1673398  53.8576889
  44.1933537   5.4879874  53.7950945   3.9853626  42.9334068   2.5202820
   4.2038777  42.1580887   3.0373520   4.8284131  43.3541155   2.3514502
  14.2680502  24.7140241  22.5153279  13.4022224  24.5028043  22.8645563
  14.7030103  25.1881719  23.2240057  31.3635492  65.4455042  64.0999174
  32.1895218  65.1590776  64.4897413  30.8108544  64.6640396  64.1086864
  16.5749121  16.4472103  29.2925119  16.7025793  15.6125677  28.8416195
  16.9434178  16.3070583  30.1647472  50.1211500  18.0711341  58.5632563
  49.7398806  17.7462780  59.3789339  50.8533001  17.4797118  58.3888721
  37.1455741  33.5834312  60.8008766  37.6909900  33.9198756  61.5119028
  36.2519002  33.6340141  61.1400223  13.8291144  35.0576949  62.5248194
  14.5442557  35.2711701  63.1241798  14.1090727  34.2488170  62.0963669
  20.8298230  43.4121513  34.1084766  21.4985037  43.4488487  34.7923994
  20.1683736  42.8116703  34.4521880  34.6956897  73.9575291  28.8237095
  35.5490565  74.3122625  29.0730333  34.3509197  73.5738945  29.6300530
  17.4933290  32.3055243   9.9690622  17.5516748  31.4161539   9.6199954
  16.9745612  32.2155237  10.7684445  12.3218405   8.4732777   6.0150856
  12.9419672   7.7554864   5.8868295  12.3213506   8.9414334   5.1801831
  22.4393320  37.9978848  64.8118019  22.8614044  38.5620427  65.4597330
  23.1620622  37.5259137  64.3981171  22.9903460   3.9377987   7.4590433
  22.5809479   4.3726841   6.7110455  22.7038193   4.4460547   8.2178646
  23.6976862   1.7031038  36.6248655  23.7856746   0.9048450  37.1457028
  23.1202459   2.2643226  37.1423841  25.4694366  41.3252878   2.6791278
  24.5140481  41.3590765   2.6309356  25.6749845  40.3908110   2.7062351
  30.9549809  67.7626371  53.1636047  30.0984931  67.9790878  52.7950811
  30.9573746  68.1797600  54.0251398  57.6185131  31.3123965  10.6537223
  56.9890833  30.7386780  10.2168012  57.4177265  32.1866632  10.3196955
  74.9070644  67.6176167   7.8754079  75.6791401  68.1062603   7.5901747
  74.2271090  67.8546762   7.2447765   8.5633129   0.9480307   1.4587934
   9.4047779   1.3629088   1.6486485   8.0515683   1.0672316   2.2588810
   2.6265731   1.8523934  25.2154899   3.2751817   1.7406592  24.5204687
   1.8738669   1.3368990  24.9257827  27.2157264  45.0696182   2.8933272
  26.6324806  44.7971058   2.1849544  27.7434945  44.2934322   3.0810279
  48.6601067  44.6241951   6.4379215  47.8193331  45.0444937   6.6187012
  48.7209225  44.6112204   5.4827434  13.5416222   7.9010940   2.1461463
  13.8794124   8.7955630   2.1914792  13.6459231   7.6519364   1.2278469
  10.0992084  20.6187296  16.4661419  10.4115188  21.4616919  16.1373389
   9.2679578  20.4779387  16.0128963  36.0156870  57.8333092  27.6132393
  36.4074731  57.3844576  26.8640614  35.4627156  58.5108519  27.2241497
  81.6230869  24.3108344  45.9188938  82.5415897  24.0751171  45.7884550
  81.6527557  25.1891804  46.2981796  81.6146088  25.2683949  24.6617198
  82.0880413  26.0846710  24.8223042  80.7254028  25.4425573  24.9702978
   7.5051808  31.2386084  17.1761274   8.0835879  30.8670235  17.8421628
   6.7343819  30.6711316  17.1847010  12.6672697  27.8043914   7.2400856
  12.4008298  27.5620055   6.3532418  12.4639666  28.7375212   7.3046422
  61.9020081   8.1179368  54.2709827  62.3545218   8.9602673  54.2269135
  62.5809908   7.4944949  54.5289230  69.3071270   1.4990760  18.8958490
  69.0116692   2.3929048  19.0690720  70.0986385   1.6064417  18.3683872
   4.2076203   1.7886528  23.0011392   4.1715062   2.1056277  22.0986676
   4.1070375   0.8397296  22.9259086  44.2061377  67.6568604  44.1068697
  44.2271042  68.6089182  44.0100193  43.3516359  67.3996449  43.7605953
  17.5623369  31.2660885  50.7409191  17.3136234  32.0239115  51.2701416
  18.0330586  31.6386914  49.9953890  26.1729598  57.4366856  31.8225074
  26.3235021  57.0744276  32.6956272  25.2552795  57.2384834  31.6359234
  28.5693097  70.7693338   2.5286996  29.2167902  70.9256220   1.8412587
  28.4134603  71.6326237   2.9116789  40.4411364  75.3165245  54.8654127
  41.1197662  74.9994516  54.2694616  40.3104591  76.2310314  54.6147442
   4.3153971  42.6466417   8.7761158   4.1424227  41.8587828   8.2607561
   3.9796552  43.3634329   8.2378632   8.0858636  66.2675333  60.1832771
   7.1825433  66.2332773  59.8685217   8.4064835  65.3705549  60.0891209
   5.7932729   6.7962426   6.8103462   4.9537182   6.8476343   7.2672254
   6.3566554   6.2952936   7.4001622  74.4677162  19.8629344  23.7207317
  74.4362354  19.0401709  24.2088938  74.2001963  20.5281043  24.3549371
  13.9653254  67.8950596  46.1645842  14.5379055  68.3403206  46.7891836
  13.9454567  66.9860363  46.4637661  25.0985074  63.2689571  54.0889931
  25.7210708  62.5654745  53.9052534  25.5818677  64.0726376  53.8974476
  77.5046158  46.0014009  12.1518052  77.3152828  46.8518448  12.5481951
  76.7503595  45.8261728  11.5891099  26.5540671  25.3548622   7.7347803
  26.7594242  25.7492208   6.8871117  26.1782813  24.5017910   7.5173295
  52.0862865  55.7693434  39.9796343  51.3908768  55.5940151  39.3456793
  52.0800018  55.0073433  40.5589008  80.7323933  10.8282661   9.1514426
  80.0881672  10.1235068   9.2186278  80.5476761  11.3939035   9.9012184
  68.9465523  55.2235079  53.0400515  69.1986799  55.8689928  52.3797417
  69.2252398  54.3843889  52.6733923   5.8633327  28.1687284   2.9477227
   6.4476228  27.5537157   3.3911169   5.8600730  27.8803730   2.0349948
  78.3296061  42.9499817   7.4882239  77.8111935  43.7546396   7.4881214
  77.9981709  42.4514389   6.7413366  81.7146969  49.0739489  44.2021179
  81.0054874  49.4168091  43.6583376  82.5014687  49.5065928  43.8703918
  69.3195868  14.2288721   1.9569366  69.5405054  15.0250745   1.4737311
  70.0250006  13.6172032   1.7460273   6.6486186  34.5704889   0.2719643
   6.1569607  35.3748798   0.1062546   7.3953861  34.6189618  -0.3248776
  15.6975985  53.8792515  62.1211004  16.5735388  53.6923933  61.7833996
  15.2844191  53.0197906  62.2038317  30.7304144  26.5400267  43.6899900
  31.3182378  26.8529129  44.3775940  29.8526120  26.7340183  44.0187168
   9.8072338  27.0867419   5.0252485   9.4137901  27.6551366   5.6873369
  10.6114101  27.5383496   4.7691590  51.9423866  16.5297508  47.5686073
  51.0767174  16.1431789  47.4366617  52.0633364  17.1088195  46.8160868
  76.1413336  75.9959459  31.5262318  76.7554045  76.3412046  32.1742654
  75.4116964  75.6566381  32.0446229   9.5898724  67.4402380  62.6198626
   9.2471212  67.0630932  61.8096018   9.4338381  66.7670155  63.2821703
  30.1952696  20.0102687  37.2791576  30.6758595  20.0330281  38.1066513
  29.8645902  19.1140306  37.2188044   2.6237443  54.0537071  16.0894370
   1.9847465  53.5727024  15.5635607   3.4155864  53.5170841  16.0540593
  29.6993184  48.0589437  41.1283684  29.7808695  48.9949894  40.9456301
  30.2026153  47.9270220  41.9318151  66.8891859  75.2611446  18.1629491
  67.1509743  76.1064720  17.7980912  66.0511827  75.0680304  17.7426076
  15.4651058  26.6693401  19.8312378  15.7087111  26.7182994  20.7556248
  14.5707703  26.3282180  19.8369765  44.4055271  17.5225306  29.3612194
  44.5630884  17.2505689  28.4570956  43.4809589  17.7696681  29.3793273
  80.2972412   5.9267813   2.2042553  80.9926414   6.5299749   1.9419494
  79.5807600   6.1081976   1.5959953  51.9907808  75.6746149   7.6370579
  52.3152542  74.8163271   7.3645002  52.7812243  76.1954451   7.7790993
   5.0101507  31.1753416   3.2909113   5.1458395  31.8704581   2.6469916
   5.7269400  30.5605769   3.1343523  69.3744373  45.3339720  37.1780753
  69.7125721  44.6255875  36.6302776  70.1540041  45.7236814  37.5738406
  46.0459185  41.7058516   2.2749789  46.6997290  42.4029541   2.2219668
  45.4539633  41.8764544   1.5423724  66.6295862  36.7177272  51.6103220
  65.7654858  36.7472887  52.0210409  67.2261715  37.0445752  52.2837400
  25.0738478  10.3021836   1.5820885  24.9374104  10.5624652   2.4930605
  24.9846077   9.3491799   1.5893482   1.7359266   0.4977515   6.7266643
   2.5657350   0.9388940   6.9084424   1.1558564   1.1951312   6.4210308
  40.3831863  27.2550464  14.6294284  39.8768616  27.7902365  15.2405238
  39.7846031  26.5536427  14.3725896  75.9844255  69.7217703  62.4192524
  75.5366468  69.4007587  63.2019901  75.4498911  69.4055653  61.6908836
   5.9599316  37.2211099  29.7296214   6.8716824  37.5048256  29.7963166
   6.0116321  36.2706733  29.6284986  22.7337480  68.5285711  41.1890984
  22.8715491  69.2137098  40.5350113  22.3051763  67.8207541  40.7078981
  70.1144791   0.4988620  21.6495943  70.2574825   1.4115427  21.3990045
  69.6420622   0.1183811  20.9091282  80.6898689  18.1551790  10.1327884
  79.9513912  18.6419797   9.7668529  80.2968311  17.3624110  10.4978526
  46.1885977  66.0418510  11.9886529  46.8402910  66.2649918  12.6532841
  46.3576221  65.1215363  11.7869520  13.8775802  60.8602142  10.8209527
  14.4308627  60.0861168  10.7166290  13.1494963  60.5624819  11.3663709
  60.2759314  30.7457066  10.3270054  60.6121635  30.5799818   9.4462591
  59.3805981  31.0541606  10.1874661  31.5389299  65.2356195  60.9060860
  31.7372108  65.0577927  61.8254852  32.0508313  66.0170746  60.6974792
  58.0336046  44.0789652  49.4831419  57.6258183  44.2816544  50.3250837
  58.9133310  43.7772274  49.7095728  45.2100611  62.5881338  56.9590378
  45.7866144  62.6818037  57.7173567  45.5800581  63.1782913  56.3024998
  24.3402290   9.6490711  12.1207047  24.9073529  10.2835774  11.6825211
  24.4754171   9.8116243  13.0542636  80.8310223  63.4025192   4.2440566
  80.0110340  62.9130697   4.3095809  81.4960289  62.8018570   4.5805025
  73.3900452  70.0564384  14.2563438  73.0618715  70.2975035  13.3900750
  72.6548815  69.6085358  14.6748579  10.5102038  64.1134071  49.4546127
  10.6006193  64.0032101  48.5080814  11.2248695  64.7024441  49.6965122
  68.0611086  62.5559092  32.9127836  67.5478792  62.8617048  33.6606550
  67.6553106  62.9775953  32.1553278   8.1421530  60.1108456  25.9965968
   8.2211608  60.9418201  25.5281186   8.2370442  59.4430399  25.3174353
  58.5737371  64.9613857  63.6754084  59.3912601  64.6079063  64.0260363
  57.9159641  64.7438240  64.3358898  61.5784979  16.1902046  47.6061249
  62.4509525  15.8600438  47.3915386  61.7179966  16.7632043  48.3600760
  70.3795290  45.1036644  10.6734014  70.5725622  45.2853775   9.7536445
  69.6452999  44.4901037  10.6473494  82.7600618  16.0981405  25.8711100
  82.3360571  16.8848133  26.2140393  82.0994369  15.4113495  25.9612465
  17.1226525  46.6474247  29.4713807  16.5126956  47.3831320  29.4173598
  17.4316931  46.6585398  30.3772521  80.2559090   9.9366927  20.3798699
  80.0361347  10.7791197  19.9820638  81.1820221  10.0143576  20.6090164
  19.5631146  66.0922575  47.1128511  19.4129562  66.9363213  46.6871357
  19.6995366  65.4801702  46.3896847  47.8875065  72.5638151  47.0880365
  48.0674934  73.1966543  46.3928032  47.8062916  71.7253256  46.6335297
   5.3483373  12.5587130  10.2624214   6.2585402  12.5981867   9.9688166
   5.4051840  12.3181641  11.1871576  51.6792250  65.6421709  65.9748602
  51.9806910  66.5272951  66.1795568  52.3154926  65.3133011  65.3398514
  66.3887119  76.8045902  41.3338089  67.2625446  76.9641399  41.6904497
  65.8264160  76.7249393  42.1043348  78.9189768  10.4371691  46.2559032
  78.8308334   9.7028965  45.6481981  78.0797577  10.4700971  46.7150974
  41.5540409   4.1072690  22.0008516  42.1391964   3.6536127  21.3942051
  40.8995247   3.4505120  22.2385645  36.8866444  58.3689594  60.8636856
  36.7228699  59.3026972  60.7312346  37.6214862  58.3392239  61.4763498
  64.2533350   5.4207736  50.3917646  63.7879610   4.9747160  51.0993624
  64.9591160   5.8952546  50.8310509  54.6974182  66.2616539  45.2615833
  53.9344215  66.3942719  44.6990156  55.0291729  67.1441221  45.4271793
  59.0993023  76.7561960   8.8354635  58.3837175  77.3342180   9.1001445
  58.6631727  75.9693575   8.5085046  62.9557848  47.2056866  56.6431856
  62.0006323  47.1962976  56.5813303  63.2473803  46.6329670  55.9338236
  55.0159550  72.7198029  53.6545706  54.7621107  72.4295187  52.7784824
  54.7482538  73.6381435  53.6895370  49.4157219  54.9973154  11.4139521
  49.6807337  55.9151936  11.4731431  49.8794317  54.5673227  12.1324992
  25.8162570  48.7752342  51.0871983  25.5420327  47.8989601  51.3577127
  26.7711639  48.7247896  51.0443020   8.2086986  40.0210714   8.3170974
   7.7476126  40.1789665   7.4932647   8.0989617  40.8327913   8.8123739
  49.1743088   4.9544287  40.7217169  49.4365692   4.3532225  41.4188576
  49.2454529   4.4368050  39.9196982  18.7831104  69.7846699  67.4310493
  18.4850740  70.3249025  66.6992331  19.7339511  69.7454357  67.3281288
  12.7120745  57.6234436  56.0087061  11.9494939  57.3144341  56.4978027
  13.0490386  56.8415308  55.5713320  80.9591484  63.5796404  59.8184729
  81.2401199  64.1758490  59.1243362  80.4216194  62.9266214  59.3702888
  71.2370682  59.9519205  15.9687245  72.1552229  60.0818586  16.2060821
  70.8653688  60.8339357  15.9578109  11.6835213   2.4324535  65.7455778
  12.0890737   3.1984937  65.3394508  11.7012918   1.7617977  65.0628376
  44.0083408  48.9644623  15.8302879  44.8696756  49.3661308  15.9442806
  43.5156441  49.5982027  15.3088927  75.8601618  33.3386898   6.8602943
  76.7689323  33.0864573   6.6967618  75.7604265  33.2725596   7.8099841
  65.2676964  42.6380110  59.9122286  64.4113111  42.3339033  59.6116400
  65.3884745  42.2126436  60.7611752   7.8933489  63.8407612  36.6239142
   7.7866352  63.7382317  37.5696063   7.0186383  63.6884403  36.2662697
  82.4661922  36.2405014  19.7870350  81.6469097  35.7641649  19.9216354
  82.9975986  36.0243106  20.5532551  40.8739090  68.8490772  32.2737169
  40.9718513  69.6300650  32.8184152  40.1712370  69.0699911  31.6624188
  14.7358608  32.5327325  28.6399007  15.3635764  32.6654887  27.9295611
  14.2769599  31.7258358  28.4063220  73.7036228  50.5117702  47.4583244
  73.1411791  50.1073599  46.7977619  73.8377619  51.4058208  47.1438217
  28.9467883  29.1232538  13.6547315  29.0907693  30.0374484  13.4102941
  28.3863258  29.1678762  14.4294071  21.5264153  68.9390135  62.7756214
  21.9964433  69.7453499  62.5631905  22.2137523  68.3165741  63.0130482
  39.5151544  35.5992532   6.9782543  39.0003991  34.9113870   7.4002731
  40.4235029  35.3803229   7.1861136  21.6218185   1.3828614  45.4333925
  20.7965136   1.4753094  44.9574137  21.5317845   0.5582301  45.9109974
  71.9632912  76.5563822  50.7507038  71.0398483  76.7820311  50.8628035
  72.0125246  75.6282187  50.9794283  78.9531946  56.6326571  -0.2026166
  79.0015793  57.0215940   0.6706631  78.3994913  55.8599758  -0.0903340
  40.9880495  39.5832896  17.8699374  40.1980972  39.2636466  17.4339998
  41.0930347  39.0077853  18.6275685  73.8937140  55.4006004   7.9692400
  74.0084028  55.3348732   8.9172685  72.9458714  55.3678274   7.8398049
  61.0913610   2.2510312  51.8866014  61.8081284   2.8712749  52.0199108
  60.3021669   2.7462357  52.1061039  65.8421564  23.4535551  37.9192281
  65.6263256  24.1501331  37.2992039  66.0829496  22.7087116  37.3683596
  78.4854984  24.4989443   1.4102679  79.2127562  24.7678757   1.9715202
  78.1623840  23.6904120   1.8078890   4.2662641  46.8317652  37.6231265
   3.3697405  47.1653700  37.5886989   4.1803518  45.9514189  37.9889679
  71.5424871   6.3633180  58.0962658  71.8391466   5.5744874  58.5501051
  70.6888342   6.5560180  58.4840536  28.2356071  49.3978167  17.5865877
  27.7990127  48.5552645  17.4611926  29.1561055  49.2219400  17.3916912
  46.7225122  14.7013426  62.3771000  46.4986467  15.0282276  61.5057421
  46.8915033  15.4899502  62.8926325  50.1016712  31.5537524  15.4469264
  50.2324057  31.5767050  14.4989741  49.3653774  30.9551930  15.5727386
  19.7004831  57.2358513  30.5471158  19.8369420  57.1204948  29.6067405
  20.4326653  57.7836990  30.8299565  49.7964144  75.4353428  35.0981688
  49.8012733  74.5223045  35.3855228  49.3956423  75.9128952  35.8244967
  73.6571455  25.4910374   4.9545711  73.7561512  25.4939723   5.9066325
  73.8326693  26.3948441   4.6927297  65.6819916  20.5498815  52.9317284
  65.4255104  20.2031374  53.7862539  66.4963198  21.0239220  53.1002092
   8.5104281  14.3177629  61.3154602   9.3211359  14.1625428  60.8308029
   7.9369128  13.5950112  61.0606241  28.0612326  45.0792408  13.0245781
  27.3199964  44.6392679  12.6083767  27.7283406  45.3525114  13.8794100
  26.9383669  55.2850199  60.7930374  27.4490476  54.4797373  60.7096243
  27.2290564  55.8298206  60.0616503  28.8842440  27.7459240  24.1384602
  28.4351969  28.4932065  24.5336270  28.3686233  27.5418663  23.3582497
  48.0145311  61.1448765  57.8674603  48.5390663  61.7915201  57.3952866
  48.2778597  61.2447405  58.7822914   8.5239744   2.6599434  62.2477913
   8.0160129   2.4645917  63.0352211   7.9133326   3.1288671  61.6790581
   0.1057973  55.8066893   6.6740197  -0.4351173  55.0846100   6.9937766
   1.0045781  55.5298758   6.8523484  59.4052315   4.0118662  62.3647642
  59.1897678   3.2900110  61.7742300  60.3216791   3.8646248  62.5986004
   7.7551949   9.9895459  56.0758162   7.3211610  10.3188574  55.2887964
   8.3093828   9.2747831  55.7624102  47.3149729  21.3566518  34.1564369
  47.8865385  20.7547951  34.6332121  47.3374081  22.1648192  34.6688747
  33.4226036  10.9067810  17.3235345  32.7498412  10.3605795  17.7300918
  33.9324331  11.2461126  18.0591691  19.2298794  37.7615333   4.1120049
  18.5080910  37.7279758   4.7398013  19.3616486  38.6953688   3.9482355
  76.2667418  65.6268167  44.0985394  77.0881319  65.2316904  43.8062668
  75.5856371  65.0680685  43.7241983  47.5928926  25.7324862   4.0061346
  48.0769634  25.7037950   4.8314142  47.2762251  26.6337419   3.9454117
  66.9479322   5.2206361  65.5781794  67.2337866   4.3518245  65.2958918
  66.0012817   5.1360977  65.6919146  72.7487659  48.9982986  56.3782787
  72.9748774  49.4674253  57.1814156  72.0764065  48.3725166  56.6476440
  73.2684851  65.2000999  62.7039576  72.9903936  64.8001051  61.8800020
  72.4930620  65.1593733  63.2636833  57.9977989  33.3839846  39.2071986
  58.3719492  33.8701558  38.4724283  58.7001467  32.7979040  39.4890642
  70.4770851  25.3740001  13.2155788  70.0774813  25.2732348  12.3516381
  70.3155279  24.5381451  13.6531615  62.1274662  53.7142229  45.3875732
  61.6044474  54.0367317  44.6536350  63.0275440  53.7219906  45.0619411
  27.0330071   8.8167155   9.6521604  26.5071988   9.6115941   9.7411829
  26.6461825   8.3557802   8.9077568  47.9679823  74.9245214  45.5031586
  48.7357616  75.4958963  45.5196333  47.3930597  75.2762222  46.1828613
  19.4134486  58.0546951   6.5295345  18.8581455  58.7584019   6.8651891
  19.8078609  58.4182739   5.7367665  57.3359394  64.4037819  66.0306740
  57.3074484  65.1682663  66.6059923  57.9152155  63.7878418  66.4793301
  27.2916603  40.3870487   9.3357164  26.9845486  41.2472105   9.0492958
  27.6534724  39.9864793   8.5452306  12.2636712  48.7412453  15.7215071
  11.3156867  48.8614798  15.7772040  12.3963928  48.2589579  14.9054074
   3.7922511  43.9961863  51.7092752   3.0554050  44.3217850  51.1922884
   3.6843133  43.0450916  51.7075777  31.8804789  34.5845532  11.9940257
  31.9260001  33.9955139  11.2409043  31.0316014  35.0183821  11.9078207
   2.3002429  54.8998594  34.3119192   1.8298636  55.4840994  34.9065900
   2.5689659  55.4627943  33.5858870  79.4549370  66.9027710  14.4594359
  80.0399113  67.1774960  15.1655233  78.9374924  66.1928892  14.8396337
  30.6471539  30.2203298   7.0951027  30.7216978  31.1168408   6.7680830
  31.3814878  29.7567105   6.6925585  79.4261837  26.8383789   9.8518550
  80.2450943  27.2781587  10.0803494  79.6117687  25.9074640   9.9750990
   8.6561942   5.0517601  33.3129621   9.0345889   4.5949942  32.5616884
   8.5406947   5.9530389  33.0119848  61.9336700  43.7401867  62.6242876
  61.5853882  44.5841265  62.9118538  62.6206732  43.5358667  63.2587242
  21.8301368  28.7445045  28.0061865  21.5776539  29.1128564  27.1595430
  21.0481191  28.8368845  28.5503793  18.3932197  52.6613665   6.4734298
  18.2060587  52.6301670   5.5352247  18.1672740  51.7874479   6.7919278
  81.9446373  35.4340196   8.4588158  81.7517757  35.7952905   9.3239874
  81.4324474  35.9719348   7.8550380  78.9172840  19.2313612  25.7725978
  78.9315844  18.2792294  25.6752753  78.0349016  19.4864333  25.5031967
  60.1633883  72.9187632  25.7926774  60.8906317  72.8518391  25.1739144
  59.4998789  72.3211098  25.4479980  78.6852694  42.1578932  11.9858027
  78.5781908  42.5804138  11.1336040  78.9674616  42.8626728  12.5687981
  25.0816751  42.1903133   8.6045170  24.8621082  41.9077492   7.7167225
  24.3078828  41.9715357   9.1237581  30.3055382  36.3386154   9.4474101
  30.1985383  37.1988750   9.8532861  30.3144574  36.5169120   8.5070050
   0.3100803   9.1419655  64.6279192   1.1714095   8.9884764  64.2396116
  -0.2288158   8.4179366  64.3091679  13.2905078  11.0107636  39.6511507
  12.4044728  11.1512065  39.9849892  13.3223081  10.0773489  39.4414878
  57.5500345  11.8388272  66.6367052  58.1029430  11.7374803  67.4114651
  58.1369659  12.1920253  65.9681307  63.7623692  61.8921566  59.5555925
  64.1743898  62.2377253  60.3474617  64.2876863  61.1252022  59.3274403
  67.5368547  55.4725218  49.1178656  66.6163778  55.6659746  49.2954350
  67.6911736  55.8258677  48.2417583  67.0061302  16.9064820  57.2784090
  66.9919014  17.4995172  56.5271854  67.4609232  17.3975873  57.9626656
   2.1985230  46.5131140   3.6834669   1.8960150  47.3776579   3.9614680
   3.0202529  46.6835022   3.2230762  11.6213143  49.9167824   8.6536968
  11.0705280  49.2048025   8.3281887  11.3397765  50.0422716   9.5599085
  60.3451681  72.2097921  65.4270411  61.1232805  71.6840839  65.2415562
  60.1149082  71.9868469  66.3289881  20.0573540   8.7965667  13.1552303
  19.3329275   9.3528497  13.4415627  19.9420488   8.7218708  12.2079408
  31.4422774  30.3840804   2.8145808  32.3587322  30.1237273   2.7220500
  31.2828732  30.3681517   3.7582800  79.2525434  77.0902872   0.0805096
  79.0806913  77.7145720   0.7854671  80.0641823  77.4001980  -0.3212875
  15.1545954  47.4142361   0.5827873  14.9290454  46.9154358  -0.2024242
  14.8920631  46.8489599   1.3092628  61.2160969  12.4717247  46.1934662
  60.6284618  12.3675263  46.9418335  60.9427738  13.2941091  45.7870054
   3.1652218  52.3164892   2.0077485   3.7911981  52.9908895   2.2715054
   2.6330608  52.7351093   1.3311441  60.0866795  28.2202744   8.1721908
  60.3266525  28.1287360   7.2500932  60.2187824  27.3472786   8.5418642
  11.4632618  70.7892609   2.3370068  11.8030703  70.6766605   3.2247472
  11.4714921  69.9078512   1.9638050   0.7027008  22.8544283  30.8803916
   1.0117854  23.6622524  31.2904167   0.1348593  23.1492543  30.1684451
  59.3545485  63.2798815  16.9246447  59.9981594  62.7577257  17.4035454
  58.6365557  62.6719904  16.7480552  78.1891823  13.1107175  10.0393796
  78.1336737  14.0636528   9.9682152  79.0507364  12.9490328  10.4238498
  23.8681579  31.1781192   4.4539872  24.2000246  31.9849157   4.8479113
  23.5776305  30.6502986   5.1977825  34.3089771  33.2099342   1.3068269
  35.1741242  32.9110289   1.5868360  34.4676518  34.0683317   0.9141326
  28.5218954   9.6105850   6.2963182  29.0922189   8.8600636   6.1299455
  28.8746715  10.0075996   7.0926601  27.0010877  70.4996634  48.5348654
  26.5633202  71.3350010  48.6985683  27.8527594  70.7426929  48.1717873
  26.0744429  12.5901639  18.3782101  26.6624403  11.8569863  18.1967127
  26.4817929  13.0474329  19.1138756  18.4670901  29.2111230   4.2120063
  19.3307793  29.5046973   4.5019829  18.6373138  28.3964705   3.7391439
  47.3054409  70.4107761  36.5189362  46.9368219  69.5483351  36.7101049
  47.5561047  70.3649521  35.5962777  46.9586039  21.0195422  48.9537573
  46.3624191  21.7617607  48.8542080  47.4567604  21.0011983  48.1366062
  31.2671423  17.2300422  11.8960977  31.5874290  16.3327920  11.9887793
  32.0391870  17.7763689  12.0434225  57.7271843  69.6727133  40.3076744
  57.8517342  68.7717628  40.0093460  56.7776251  69.7931242  40.3160906
  25.2289915  74.3659353  26.6017652  25.9712100  74.1402769  27.1625018
  24.9656963  75.2389908  26.8927670  31.9526339   6.5924633  27.4678540
  31.8502569   6.5708113  26.5163898  32.8986382   6.6397750  27.6059437
  60.8688402  71.2398767  21.1054444  61.1411476  71.3405704  22.0175529
  59.9123096  71.2324953  21.1404800  60.1025105  26.3788557  55.4498339
  59.6186733  26.8248320  56.1449862  59.5069981  25.6944132  55.1446533
  42.4706221  31.8305850  20.1667643  42.8937149  30.9897041  20.3403831
  42.7131653  32.0389795  19.2645574  50.5294240  -0.1838776  64.1619825
  50.0349797  -0.3615757  63.3618689  50.5931366   0.7705501  64.1971779
   3.6288506  68.7220621  47.0132446   2.7897045  68.5961008  46.5703011
   4.1493610  69.2384386  46.3978958   2.5555772  47.3273611  15.5789769
   2.1977761  46.4869738  15.2926934   3.4201160  47.1127319  15.9293187
  21.6644549  29.2105103  25.1474476  22.4796844  28.7287545  25.2872419
  21.9461250  30.0874424  24.8869061  51.1573172   5.2371550  44.0458059
  50.5200148   4.5998701  43.7234068  50.6277657   5.9100246  44.4736528
  44.3448305  21.3160658   5.6794608  45.1914454  21.3356686   5.2332652
  44.5569277  21.4583445   6.6019595   2.3010036  60.0240469  48.6632395
   3.0802143  59.5775557  48.3320141   1.5749535  59.6277905  48.1815100
  27.5663543  26.4954352  10.0895393  28.4110904  26.9428539  10.1392210
  27.6481247  25.9124565   9.3347669  69.3947554  10.5430114  29.2393756
  68.8142347   9.9319619  29.6930766  68.8361835  11.2904942  29.0260744
  27.9247332  62.3223019  26.9994807  27.2905159  61.7825651  27.4713802
  28.3123875  61.7290163  26.3560772  54.2984867  69.0190077   1.0242721
  53.4273911  69.2899513   0.7344338  54.1356325  68.2915401   1.6246867
  14.2050862  26.1494422   0.4726718  13.9926445  26.2569451   1.3997874
  15.0288355  26.6235614   0.3591681  39.5419049  71.8406820  52.9358196
  39.4022226  71.3147163  52.1483660  39.8225713  72.6946163  52.6068020
  43.1576061  71.4025879  62.7791786  42.3426914  71.6508770  62.3427153
  43.6352968  72.2258139  62.8808689  39.6763206  57.4776649  28.0996966
  38.9274836  57.0203829  28.4822726  39.3822694  58.3839703  28.0081701
  54.6689653  71.2999058  50.9379530  54.3089199  70.4148388  50.8808374
  55.6174898  71.1750698  50.9070969  23.3268070  18.1209671  39.5744443
  23.6006975  18.6015439  38.7932515  23.3249021  17.2031713  39.3026400
  79.5105505   6.6454375  25.3483200  80.0472832   6.7694312  26.1311197
  80.1416969   6.5976459  24.6302676   4.2194805  10.7857060  18.2752228
   4.8131737  10.0376105  18.2110846   3.4016576  10.4147303  18.6065435
  28.8172340  22.3767304  17.0636225  28.4013414  21.7132878  16.5130699
  29.2048335  21.8808532  17.7848053   0.2021184  10.7797134  50.2963972
  -0.0534377   9.8573226  50.2855730   0.8964124  10.8436000  49.6405792
  41.3533163  12.8469098  51.7693758  40.4567623  13.1251073  51.9565296
  41.3051128  11.8915987  51.7334938  21.1765051  60.8287668  50.2262592
  21.0096979  61.7328644  50.4927444  20.4358721  60.3348541  50.5780315
  53.1315327  55.9551382  36.7820501  53.1407404  55.3133249  37.4921370
  53.2467222  56.7984724  37.2199440   5.3172272   8.4091479  18.0991411
   4.9098533   8.2248175  17.2527957   5.4233646   7.5493395  18.5061991
  14.1849589  34.2753291  32.5171232  13.4450722  33.6686206  32.4905825
  14.8724020  33.7946892  32.9782510  77.2126245  64.4496346  12.8834629
  78.0784702  64.1686058  12.5875401  77.1756601  65.3809690  12.6655710
   9.8924303  18.6865735   7.7441859   9.4613832  18.2921505   8.5023820
   9.8914921  19.6256089   7.9297733  26.7069817  18.2110167  19.2204201
  27.2487736  18.2863414  20.0059247  26.1901808  19.0166152  19.2077625
  41.8966532  23.5206604  10.3031659  41.7162561  23.4992957   9.3633616
  42.8408623  23.6661792  10.3625619  36.9125605  19.6076858   2.5127393
  36.1614466  19.8060906   1.9535471  37.2259927  20.4634714   2.8053570
  18.4230530  58.5596371  61.5668964  18.8260412  57.6996803  61.6865253
  17.4956775  58.4181070  61.7570972  69.0965366  18.0646336  58.5261059
  69.5959520  18.5842633  57.8961802  69.0914583  18.5945892  59.3231916
  54.4090509  72.9470348  57.4483490  54.9987078  73.1983089  58.1592655
  54.0794134  73.7777758  57.1056509  58.4681273  25.6485939  60.2454853
  57.7060366  25.1062059  60.0423431  58.9162731  25.7558346  59.4064999
  17.6520407  16.9989216  21.3926578  17.7197814  16.9166529  22.3439050
  16.7280090  17.1919835  21.2341452  14.5474923  23.0429626   2.9987454
  14.4606602  22.5326920   2.1935654  15.1199210  22.5156212   3.5559416
  10.8059871  59.5615959   5.9003830  10.3141844  60.3786469   5.8179826
  10.4648423  59.1560459   6.6974908  19.6111882  36.4915872  26.0942030
  19.6744478  36.0252357  25.2606869  19.3422735  37.3779798  25.8529091
  46.7031527  56.6686821  29.6937275  47.5898027  56.7795610  30.0369287
  46.8131781  56.1158943  28.9200664  57.5224161  27.4695468  48.3474350
  58.2423162  27.8773975  48.8287163  57.9465485  26.8186474  47.7882576
  40.3971815  11.2470305   0.3557933  40.8797789  12.0652342   0.4735746
  40.8269358  10.8200288  -0.3852947  34.4469357  54.1398335  24.3075562
  34.9772286  53.5639095  24.8583150  34.0730667  54.7763634  24.9168849
  28.0960274  23.7955594  42.9987574  28.9423394  24.2165160  42.8478098
  27.4935913  24.5210290  43.1630707  60.0156403  29.6426320  52.1374750
  60.9627914  29.7283888  52.2460270  59.8198509  28.7543583  52.4355793
  22.6588440  56.7397070  16.8515790  22.0756912  56.7028761  16.0934162
  22.0744038  56.6732693  17.6067257   4.9745044   2.1773151  41.9192696
   4.1377199   1.7164709  41.8588877   4.9134606   2.6791361  42.7320957
  76.1533546  15.1032472  56.0239029  77.0080996  15.4229510  56.3127470
  75.7884598  14.6664035  56.7934799  18.9979947  76.6517925  25.4310536
  19.5559311  77.4290466  25.4595852  19.6045232  75.9178352  25.5293536
  32.6380205   2.6528192  67.3603916  31.7630625   2.4419895  67.6863194
  32.6783061   2.2396752  66.4978838  61.7892981  58.2715321   3.6102790
  61.5116453  57.4132538   3.9304340  62.7421761  58.2641697   3.7008327
  46.0044193  71.5927076  48.7157154  46.1929798  71.9932747  49.5643711
  46.6988230  71.9130993  48.1400537  61.9892168  56.2817192  46.8999624
  61.7912817  55.5569315  46.3068867  61.2089586  56.3622189  47.4485493
  27.9884219  30.7543111   8.4411049  28.0670691  29.9792337   8.9972538
  28.0560899  30.4162407   7.5481540  46.7143059  46.8526936  44.9404764
  46.8916082  47.6048088  45.5053806  46.5447426  46.1320829  45.5472755
  66.0753012  28.6903453  59.4991732  65.1949549  28.4244585  59.7647333
  66.4340210  29.1330647  60.2682972  62.0887613  19.7235537  48.7921381
  62.3849297  19.9667525  47.9149961  62.8745413  19.3924057  49.2270136
  39.8481441   2.9924169  10.8459365  39.1008949   3.0381596  11.4423883
  39.5019627   3.2909927  10.0049591  15.5124938  41.8753672  56.3917255
  15.4697323  42.5973368  57.0187521  15.3189993  41.0950994  56.9113111
  61.3659811  13.4415472  61.3689232  61.5920448  14.2012000  61.9056320
  61.7371750  12.6959741  61.8406916  24.5588875  10.0352967  58.0964708
  23.7156248  10.2780497  57.7140951  25.1973391  10.5757594  57.6311636
  41.9637203  15.9191704  41.5253544  41.5024424  15.4101336  40.8587694
  42.6001644  15.3076792  41.8958330  56.5679026  14.4155669   2.1120484
  57.0248795  14.8671114   1.4024654  56.1757612  15.1185787   2.6299602
  35.0813890  12.3659921   1.3023330  35.9902811  12.6395738   1.4260170
  35.0873256  11.4261878   1.4838989  53.4288406  32.0518517  53.1445551
  52.5452852  31.6930008  53.0621910  53.3998489  32.8743052  52.6557207
  17.8679299  15.3424430  37.6757145  18.3750606  14.6159220  37.3134708
  17.4812388  14.9887121  38.4766984  11.0879350   1.8254246  62.2839355
  10.1728380   2.0918866  62.3724079  11.2148631   1.1724179  62.9721975
  41.7880249  65.2928638  46.0279608  41.7306805  64.6790981  45.2956820
  41.3360643  66.0778475  45.7184982  78.4939194   8.5325313  36.0012770
  77.8906822   8.4522247  36.7401195  78.7206793   9.4621718  35.9771657
  17.7468717  22.1816993  54.1402578  17.6472855  21.8248034  55.0228310
  18.6893404  22.1533751  53.9753819  42.1319628  33.3549047   3.7716261
  41.9782782  33.1835008   4.7007293  41.3224173  33.0811214   3.3404541
  69.1730690  37.1949053  58.7834215  69.9025965  37.0998335  58.1710625
  69.5017529  37.7903724  59.4569349   1.6379064   5.5545479   9.8798656
   1.0062212   5.4228610   9.1728550   1.3082895   6.3162249  10.3567648
  50.7709026  12.0016694  31.9114590  50.8782768  12.0876968  32.8587174
  50.8114672  12.8999293  31.5832567  55.1659012  70.5891514  61.0172749
  55.1081896  70.7204199  61.9636726  54.5370674  69.8912811  60.8334780
  21.2544465  18.5690486   8.2888955  21.8100572  18.2484388   7.5784481
  21.4161754  19.5121932   8.3124566  47.1050453  60.6275940  54.9278641
  47.2437954  59.7072220  54.7044945  47.3010397  60.6791973  55.8633614
  37.2428608  14.7998786  12.7213550  36.8997025  15.6743300  12.9052246
  36.6695547  14.4568574  12.0358706  66.5568161  16.5931404  63.0760908
  66.5288496  15.7632828  63.5523129  66.3885784  17.2581708  63.7436724
  68.1705141  66.2564945  61.0656881  69.0207529  66.6863441  61.1581707
  67.8597832  66.5238571  60.2007055  27.4972081  20.9616876  42.4152136
  27.9016781  21.7299008  42.8183079  26.6128898  20.9370589  42.7807331
  33.0225372  71.3210440  49.2304564  33.0275989  70.4696560  48.7930298
  32.1882033  71.7157078  48.9767647  20.6386900  51.3260078  31.8857551
  19.7330689  51.0485220  32.0238876  20.5974531  51.9097090  31.1282396
  45.6948519  70.3628206  58.3624792  45.7942963  70.9419346  59.1181040
  45.9701633  69.5033741  58.6815214  34.2333627   6.4414811  63.2051277
  33.5894680   7.1496803  63.2142973  33.9452934   5.8650082  62.4973679
   9.6283507  45.9840155   4.3021679  10.3539491  46.2648201   4.8597401
   9.2043495  45.2822924   4.7961703  73.2341385  62.8724194  41.5722513
  73.2419682  63.2332945  42.4587822  73.0295515  63.6203337  41.0110044
  31.4737844   2.5460479  15.7132697  31.0512447   3.2139614  15.1732862
  30.8380985   2.3591255  16.4040613  20.6994152  73.1149387  54.9960136
  20.8696437  73.5329628  54.1519117  20.1378632  73.7348747  55.4613829
  33.9628839  53.9783907  10.0232267  34.5635152  54.7223854  10.0673318
  34.4184422  53.2750463  10.4858279   3.6802167   3.0638695  20.5650663
   3.2234985   3.5846838  19.9044669   4.5264935   2.8605142  20.1667023
  44.3321848  30.2452326  14.2568970  44.9734497  29.6241021  14.6021676
  44.8300457  31.0507774  14.1173792   9.7139645  21.4975643  53.8872433
   9.1944396  21.3610029  54.6795034   9.1624916  22.0478392  53.3310890
   2.6492321  15.8342361  67.3218298   2.8714401  14.9540007  67.6252127
   2.4178013  15.7186365  66.4002514  65.3008842  53.3832264   7.8977263
  65.6942940  53.1935501   8.7494791  65.9891558  53.8375759   7.4118423
  25.7195663  21.5768886  49.6314812  25.8700085  22.5069404  49.4623566
  24.8090458  21.5306973  49.9231100  70.5883169  68.9929104  14.8663294
  70.3697681  69.4594622  15.6730485  70.1434231  68.1494665  14.9494076
  14.0435994  33.3563924  66.0851049  13.8960779  33.1938219  67.0167923
  13.2792878  33.8605261  65.8059835  63.1079292  60.0485468  42.3580456
  63.1664944  59.4197798  43.0773878  62.9977274  59.5079947  41.5758133
  38.1064820  61.6546011  32.4205637  38.0650830  62.5927973  32.6057625
  39.0192294  61.4179897  32.5853109  61.0472393  64.8169661  65.3150558
  61.6090202  64.9667597  64.5546627  61.4303160  65.3573656  66.0060358
  80.0948811  63.5607243  39.2217255  79.7514105  63.2051468  38.4020782
  80.9422112  63.9367437  38.9832377  60.0048208   5.1992786  28.4491515
  60.2896452   5.4307896  27.5651217  59.0834904   4.9598277  28.3489418
  36.7961907   7.8253210  33.1784153  37.6563382   7.5086552  32.9025507
  36.7497373   7.6113641  34.1102386  68.2253170  43.6253166  33.8515067
  67.2940159  43.4610033  33.9995480  68.6345816  42.7627468  33.9201021
   9.1456234  19.0862143  30.1128840   9.1484541  18.1670928  30.3801656
   8.9612615  19.5693243  30.9183955  66.1340380  29.2421341  12.4102616
  66.5545225  28.3924437  12.5423670  66.6129112  29.6355128  11.6807663
  63.0115843  68.3014345  21.1890721  62.6023531  68.4508991  20.3367686
  62.2893190  68.0357504  21.7582631   9.7463161   1.2012396  42.9950333
   8.9400363   0.6989314  42.8774261  10.1063311   0.8857094  43.8239241
  16.2242043  41.7999077  21.5458918  16.1643136  42.2540569  22.3863649
  16.1236382  42.4917746  20.8921027  54.7625017  47.2739267  42.2491503
  54.0623665  47.8615189  42.5333595  55.5695772  47.7310419  42.4856138
  35.1268268  66.5627766  37.7654910  35.6852102  66.1263132  37.1221089
  35.7044935  66.7290163  38.5104036  28.5382938  11.0562396  62.8029060
  28.0880332  11.6286087  62.1817064  27.8770280  10.4132128  63.0587912
  27.3285508   5.4485345   6.1321372  27.0091200   4.6917850   6.6235912
  26.8577766   6.1932290   6.5063500  57.4775505  16.3370454  57.8600693
  57.3985815  15.7102668  58.5791922  57.7578783  15.8094537  57.1122074
  61.1715460  70.4349661  49.6140242  61.8449736  69.8522139  49.9649286
  61.3160563  70.4256248  48.6678410   0.4733816  51.5748692  21.2139153
   0.9132020  51.3889265  22.0435023   0.2922364  52.5142813  21.2441564
  31.3847494  10.1908565  55.2127218  32.3326540  10.2491796  55.3323364
  31.2329721   9.2859489  54.9400711  76.3259506  70.1461983  12.5119472
  76.0988379  69.9557447  13.4221017  75.5030870  70.0449610  12.0335400
  72.4110413  75.2307177   4.1217828  73.0638981  75.3745508   3.4367138
  71.8899107  76.0335922   4.1283759  31.0917759  31.2863755  37.6805329
  31.9483900  30.8791184  37.8093100  30.4917383  30.5499578  37.5627255
   5.5846804  39.1360116  51.7392588   6.2939668  38.5297132  51.5258360
   6.0178190  39.9826908  51.8476915  49.0048313  29.6975899  60.4584551
  49.3377209  30.0719643  59.6428156  48.1319046  29.3746281  60.2350283
  51.6992712  71.6838694  17.8359842  51.8914795  72.3178291  17.1450579
  51.0080338  71.1323977  17.4695027  72.3426723  74.4515085  52.6902676
  72.3659563  74.6593380  53.6243439  71.4969063  74.0221930  52.5614262
  81.2851620  47.5964975  49.1288471  81.4785099  47.5113058  48.1952572
  82.0974255  47.3408175  49.5659733  81.7502975  20.4000878  48.0500507
  81.2306213  19.6667159  48.3791924  81.7061424  20.3164935  47.0975304
  31.3631654   8.4295255  33.4673214  31.7799878   9.1158587  32.9463220
  31.3149714   7.6771009  32.8776050   1.3219860  69.6400928  63.7143850
   1.2718479  68.6844015  63.6951113   1.9533414  69.8328829  64.4075346
  77.0865917  25.2886677  45.2741766  77.4416447  24.9758816  44.4421101
  76.1675167  25.4787803  45.0860643  36.4864421  64.7497082  63.5671759
  36.6915798  65.3546715  62.8543139  36.4388752  63.8912058  63.1465340
  67.1151781  57.0072937  15.2019382  66.6345072  56.2029171  15.0065684
  67.6542425  57.1587420  14.4255996  31.1908054  19.5713341  32.1046209
  31.8627453  19.5194888  31.4248848  31.3960266  20.3743100  32.5835228
  18.3709121  11.4461088  16.5704262  17.9108739  10.6510854  16.8397486
  18.5367942  11.9154537  17.3880029  36.5875363  19.4534695  57.5933933
  37.1137214  19.4781017  58.3926153  35.6928110  19.6190822  57.8904963
  42.1069860   5.6550843  24.0798426  41.4446306   5.2578616  24.6452904
  42.0325661   5.1790035  23.2527733  76.7923164  15.1194322  36.1814427
  77.1465158  15.9702587  36.4400268  77.5572586  14.6164799  35.9019208
  34.0962315  10.2827168  46.7373610  33.4923029  10.9785295  46.9968748
  34.3683720   9.8815900  47.5627518  45.0429153  65.0521517  60.7220888
  44.1938734  64.8303318  60.3397846  45.2899599  64.2753410  61.2238503
   3.8429296  51.9699955  40.8809662   4.4160807  52.2009993  40.1499605
   3.5442692  51.0830355  40.6801414  13.2076514  12.6599419  66.8378258
  12.8813350  11.7821252  67.0357800  12.6311922  13.2459903  67.3282051
  63.6545086  18.5239887  18.4765458  63.7544250  19.4759595  18.4759796
  62.9358721  18.3582222  17.8663719  22.6034188   6.5057600  58.5140085
  21.7671704   6.3424128  58.0778503  22.5166702   7.3877597  58.8756466
  14.5466828   4.2438883  46.3590002  14.6196508   3.3519626  46.0193300
  14.8899341   4.7964329  45.6567860  80.8833504  36.1587358  16.6154563
  81.3345432  35.3151727  16.6479874  81.2464428  36.5949917  15.8446908
  23.3391690  30.1062679   7.3509204  23.9714837  30.7455277   7.6791877
  23.7571502  29.2580223   7.4992543  79.7842836  21.9392037  49.6820068
  80.3142643  21.4103079  49.0856695  79.5768785  22.7286291  49.1819859
  79.8619223   6.2050498  48.7537956  79.8901606   7.1510214  48.6103678
  79.2536879   6.0915869  49.4841433  79.9106884   0.5306549  12.1027422
  79.3889761   1.2034434  12.5402403  79.3477678   0.2122664  11.3970613
  54.0353251  55.7144403  10.3899491  53.2457352  55.2675867  10.0848281
  53.7848997  56.6370392  10.4382098  38.0429983  69.9729013   3.0304685
  38.1245542  70.9237146   2.9560152  38.2120705  69.7896481   3.9546242
  76.6287518  51.5580845  50.7106066  77.0174122  52.1483994  50.0650787
  76.4353275  50.7597303  50.2192307  12.9215527  44.4322681  24.2434001
  13.0206871  43.8445377  23.4944129  13.3858919  43.9928102  24.9557924
  10.4704309   2.1887392  18.0704463  11.0923886   2.9158306  18.0976272
  10.1968324   2.0734470  18.9804375  43.1920433  19.2871833  62.6999331
  43.4259415  20.2047253  62.5597954  43.6608076  19.0395439  63.4969044
   6.9148672  27.4846292  17.3770213   6.5325963  26.6643786  17.6889372
   7.6195914  27.6715446  17.9972291  34.8238707  73.1746292  48.9499092
  35.6321692  72.6975870  48.7619877  34.1862416  72.4922180  49.1596079
  18.1543565   8.8789272  44.5596218  18.8296914   9.1348279  45.1878452
  17.4039555   8.6340922  45.1010847  78.9023924  74.5937967  29.9534035
  77.9729891  74.6494102  29.7312713  79.1789770  75.5043793  30.0562286
  30.3213024   5.8462745  47.8332615  29.3755627   5.7113230  47.7733088
  30.6848598   5.3105223  47.1282625  67.3897123  63.4970999  47.8213644
  67.5265503  64.4391155  47.7207994  67.1256924  63.1991482  46.9508791
  79.5499420  76.6824484  55.8994961  79.7227240  76.8360949  54.9706411
  78.5978079  76.7405987  55.9788227  77.4918461  28.2143974  63.3960724
  78.2648659  27.8910136  62.9333687  76.7722654  28.0881715  62.7776003
  13.6339164  50.4336071  17.6565814  14.5179200  50.6667423  17.3730040
  13.1893098  50.1601362  16.8542278  56.6461611  48.3503056  15.2299654
  57.0780563  47.5312996  15.4727173  56.1059237  48.5702848  15.9888983
  18.0420041   7.7856320  32.8189135  18.8911808   7.4337888  33.0860043
  17.5186920   7.7826309  33.6203909  61.9467831  44.9037170   2.9020661
  61.9010067  45.3236389   2.0431107  61.3717556  44.1421509   2.8273115
  55.0736904  56.1682272  41.3944244  54.3828487  55.5662012  41.6710711
  55.2732086  55.9069824  40.4954386   8.8234496  46.4026499  58.1427956
   8.9721566  45.9233713  57.3276854   7.8858423  46.3063097  58.3096552
  70.1720333  52.3209238  29.9783325  69.3164825  52.0985508  29.6111655
  70.4714346  51.5126562  30.3946209  45.2057648  34.7357845  13.5857606
  44.8081493  35.3469062  14.2059731  46.1226797  35.0062609  13.5374296
  76.6036129  77.1845675  53.1280041  76.3452196  77.4400568  54.0135479
  76.8678284  76.2682676  53.2105732  65.4754162  19.7952104  28.9898801
  65.5660248  20.2635789  28.1600285  66.3737488  19.6823061  29.3005061
   0.0731530   6.5623647  33.9760184  -0.2348361   6.4814377  33.0733395
   0.9892335   6.2868822  33.9421368  65.4290199  46.1448240   3.6379761
  65.6099224  47.0685339   3.8119486  64.5292425  46.1343145   3.3116052
  13.1740260  30.4343653  51.3332415  12.9556131  29.7872043  52.0038462
  13.2310092  29.9290562  50.5222845  18.0223441  62.2834158  33.2726908
  17.1230817  62.3600197  33.5915852  17.9645622  62.4929333  32.3404932
  38.9738965  21.5987086  64.7559071  39.6448684  21.8803525  65.3777599
  39.4654512  21.2040234  64.0356064   2.3999017  14.8160505  50.1521397
   2.3265071  13.9730573  50.5995846   1.5822598  14.8987019  49.6613598
   8.8656253  22.3219776  49.7375154   9.7554004  21.9710422  49.7746181
   8.7115592  22.6771784  50.6129169  74.8236561  29.5014858  49.5766973
  75.0147486  30.2014613  50.2009964  74.7834969  28.7083387  50.1110554
  58.3810520  59.6243858  16.8909144  58.4773302  59.9636889  16.0010624
  57.4360943  59.5287704  17.0098531  43.4282875  22.5606918  46.1818695
  44.0633440  21.9286346  45.8450651  42.7015924  22.0243526  46.4988661
  18.9320946  70.8102655   9.5209908  19.6442997  71.4441824   9.6055090
  19.1430032  70.3173733   8.7280148  27.3152328   2.7445936  57.4610567
  26.4890742   2.3090178  57.2513723  27.8532004   2.0595220  57.8579187
   8.8204575  77.5930691  56.5860128   9.1528726  77.5402403  57.4820852
   7.9020649  77.8437948  56.6856432  57.9837465  73.9437199  61.6734695
  58.0172443  73.1424379  62.1960211  58.0809402  73.6443758  60.7694912
  39.5241499  15.4728055  55.9441710  40.3539181  15.7126009  56.3567448
  39.6426153  14.5602608  55.6806183  24.3050814   6.8726546  36.3576293
  24.1927004   7.8191626  36.2697363  23.8827610   6.6575205  37.1892524
  65.7153416  21.6593146  60.4750633  65.4829836  22.3576427  59.8630381
  66.5333414  21.9540358  60.8753777   5.7754838  22.2270226  45.1165915
   5.2554721  22.8003669  44.5534801   6.0812306  22.7972651  45.8219814
  44.5882320  41.3512039  64.9211216  44.4253969  40.7726574  65.6661034
  45.3169584  40.9417677  64.4546986  11.9878876  72.7333927  63.4645700
  11.9627869  72.5051880  62.5353098  12.3486471  71.9567585  63.8922644
  81.0032749   0.5637203  20.0053000  80.2912521   1.2007653  19.9467850
  81.7307758   1.0523291  20.3903222  55.6695318  60.7724619   1.9402039
  54.7847795  60.8161688   2.3028834  56.1466551  61.4712000   2.3878072
  56.8050766  11.7749012   1.3280675  56.6234112  12.6249242   1.7289276
  56.0864735  11.2139654   1.6199401  33.5212064  76.5751314  28.7554932
  33.7809825  76.8658066  27.8812766  33.6615086  75.6283331  28.7446189
   4.3810961  76.5066385  28.1822872   5.2386677  76.7327404  27.8221750
   4.1432184  77.2586584  28.7246084  61.0190201  76.4506817  38.6096096
  60.1850605  76.2718201  39.0440679  61.0725594  75.7946730  37.9146147
  18.4784794  41.4093161  63.2096624  17.8892374  42.1564722  63.1058216
  19.2703021  41.7809677  63.5984135  50.8304119  48.2714748   4.0835187
  50.5357552  48.4070635   4.9840868  50.9468508  49.1549492   3.7340268
  68.7129641  46.5094948  66.0282421  69.1141224  47.3554039  65.8288908
  69.3557644  45.8642483  65.7338142  77.6533651  76.6939831  33.6598825
  77.8704739  77.5975132  33.4302545  78.4979582  76.2444115  33.6878705
  81.2406063  70.0349474  19.7033036  80.9172916  69.3087626  20.2365565
  80.7791424  70.8031368  20.0397134  29.7606516   1.0473081  24.2114401
  29.1735554   0.2914176  24.2248917  30.5825663   0.7187149  24.5757413
  69.3221188   0.4230171  58.8838148  68.4652805   0.6407053  58.5168362
  69.9466038   0.8850024  58.3245087  35.9088302  34.3245840  52.9919147
  35.3550005  34.7786617  53.6269855  36.3826823  35.0249529  52.5433874
  72.0794630   9.1339636  43.6584425  71.1437368   9.0914977  43.4613514
  72.1357679   9.6919674  44.4341326   2.0835257  35.4695225  15.5070746
   1.8743846  34.8920369  16.2412429   2.5972345  34.9236655  14.9117792
  55.8318567  67.7778387   7.1843195  55.9920645  68.4988737   6.5754896
  55.2868986  67.1645832   6.6911995  40.6356096  16.0649693  67.0023203
  40.7073641  15.4737079  66.2529898  39.8864341  15.7339728  67.4977112
  52.9969788  76.9526148  50.9591484  52.9142666  76.3728094  50.2020359
  53.6487770  77.6014662  50.6938553  37.6010013   7.2486681  25.1388311
  38.0022144   6.3929236  25.2903581  36.6622090   7.0680010  25.0912523
  33.3863878   6.5577632  35.8357882  33.6491060   5.9097564  35.1821065
  32.4307561   6.5060222  35.8537269  68.9652824  76.5335703  48.7188339
  69.8125553  76.1439896  48.5029840  68.9273882  77.3316765  48.1917477
  42.5902843  17.8891408  35.9352708  43.4272480  18.3334792  35.8000493
  42.8185701  16.9615161  35.9955287  64.3640804  27.9128194  62.0807314
  64.1326284  27.2353578  62.7161121  63.9887953  28.7166429  62.4402618
  38.3135200  17.4137127  45.0368738  37.4596667  17.1438742  45.3750324
  38.2629728  17.2443533  44.0961313  35.3593755  19.8017597  47.4392653
  35.2554774  18.9409769  47.0336914  36.1718655  19.7337568  47.9407263
  56.7115736  61.1348963  39.7498775  56.5593195  60.4583120  39.0901184
  55.8389950  61.4717054  39.9533367  21.9401646  40.2751255  52.4447584
  21.9932175  40.4171896  51.4996433  21.4282298  41.0156822  52.7699137
  15.3082919  16.9336140  57.5446606  14.7921765  17.7261424  57.6921606
  14.7189593  16.2168396  57.7795076   5.4046756  53.3726025  42.7286053
   5.0009751  54.2382860  42.6665306   4.7925001  52.7900553  42.2790384
  13.7056708  38.5013747  29.6359730  12.7556372  38.5262299  29.5217347
  13.9990437  39.3798399  29.3941832  49.2085695  12.1617401  66.1639595
  48.3250427  11.8094027  66.2710857  49.2391396  12.4593103  65.2547026
  39.4114780  42.8589678   2.7918458  38.5804272  43.2841063   2.5800809
  39.5237565  42.1985960   2.1080792  35.0679612  29.7222877  40.6577492
  35.9180498  29.3602371  40.4077530  34.7644210  29.1539955  41.3656616
  15.2548254   9.6371835  36.7108202  14.3616021   9.9802130  36.7375612
  15.6976807  10.0648713  37.4437571  72.0283699  69.2012501   3.0101007
  71.7524576  68.3620167   3.3786049  72.2535467  69.0014219   2.1014777
  79.4118547   6.0310644  22.3011231  78.9360142   6.6075754  21.7032599
  78.9801645   5.1817024  22.2091460  25.2952337  13.2115841  52.8311348
  25.8145404  13.7956989  52.2785378  24.6569800  13.7863004  53.2537031
  78.5542250   1.5640388  49.5677328  78.4680796   1.5666272  50.5210447
  77.7996922   1.0615671  49.2604256  74.8547888  50.1955080  13.3107257
  74.9709845  51.1455345  13.3240426  73.9139128  50.0675726  13.4316170
  42.7354145   9.2598695  44.7877216  42.8747940  10.0846457  44.3223715
  42.0436287   9.4553936  45.4197311  62.6900434  33.8217545   9.0107244
  62.5368166  34.7508383   8.8387936  63.4654045  33.8067007   9.5718139
  22.5231647   3.3751702  47.4843645  22.5324965   3.8675284  46.6635561
  21.8873739   2.6750723  47.3364973  42.9537106   2.2358921  48.8121367
  43.3343077   2.0030263  47.9652882  42.4135160   3.0045155  48.6287260
   0.6788933  38.7494540  27.9035020   0.3475212  38.1504345  28.5725307
   0.9768027  39.5154190  28.3941936  15.1266491  44.7083855  39.2798305
  15.0662220  44.9096823  40.2136707  14.8288906  43.8013172  39.2105818
  51.4874887  54.1266584   9.3867266  50.7305813  53.7812519   8.9134240
  51.1446047  54.3594885  10.2495420  79.4615650  35.2959490  34.3086004
  78.8165760  34.6085548  34.4750810  80.2536011  34.9939919  34.7532701
  77.9481363  57.3194456  41.2948370  77.6541138  56.4125109  41.3799858
  78.2015419  57.5733995  42.1822643  77.9730368  13.3106101  45.5274534
  78.5211039  13.7905920  46.1483145  78.0593204  12.3942947  45.7904196
   6.1019897  70.6201410  15.7464254   5.3786218  70.2242184  15.2604067
   5.7381666  71.4329052  16.0975337  38.4374118  28.3474922  42.8344011
  38.2326174  29.0622997  43.4371758  39.2655754  28.6053896  42.4295998
   4.6528259  31.5240717  59.7938299   4.7481877  31.0070062  58.9939642
   5.1639420  31.0486054  60.4487514   3.2982612  68.2652330  38.5872483
   4.0124786  68.1145811  39.2064643   3.6548957  67.9970694  37.7404118
  74.8797464  77.3113680  35.1170158  74.7655821  78.0262136  34.4907570
  75.3383684  76.6314697  34.6234202  14.8799753  16.7282605  60.8876562
  15.0579131  17.0014453  61.7876196  14.0400207  17.1352851  60.6754303
   6.0170436  13.5650051  56.7412996   5.2714521  14.1548276  56.6297913
   6.4510357  13.5636222  55.8881378  62.2609949  49.2813683  14.1858637
  61.5589619  48.6336422  14.1239464  63.0575657  48.7616539  14.2935932
  54.9460936  57.4790382   5.4231203  55.3587866  57.7225590   4.5944977
  54.0186548  57.3789549   5.2084780  22.3187900  37.8125453  45.8378124
  22.5407553  36.9298577  45.5414629  21.7682338  38.1680584  45.1401520
   4.8514405  29.4959354  57.8210020   5.7004571  29.1098332  58.0362415
   4.3256482  28.7595105  57.5088310   8.6848861  66.5987682   5.2711171
   9.2877311  67.1159124   5.8053225   7.9286689  66.4504719   5.8388972
  37.5401354  19.5370746  49.0248203  38.0087376  20.3661227  49.1213846
  38.0780888  19.0270042  48.4192896  19.1382504   3.2683510  14.3345320
  18.4030104   3.8735950  14.4311512  19.8993421   3.8345546  14.2065358
  14.0114045  48.2501793  43.5375786  14.7834241  48.4615135  44.0625095
  14.2726588  48.4459829  42.6377773  68.2544279  19.3167269  61.0980797
  68.0836630  19.9967098  60.4463959  67.9181671  19.6802044  61.9172525
  21.3482499  14.6202087  44.1611862  20.5776048  14.1882622  43.7927341
  21.6820979  15.1639760  43.4476805  61.3316727  25.8375478  61.5908098
  60.3974438  26.0459781  61.5932989  61.7053747  26.4205122  60.9299517
  73.1837368  59.7943020  31.1984468  73.2175922  60.6028938  31.7095876
  73.4799194  59.1152239  31.8045521  39.4370294  19.7430503  34.4218230
  40.3056097  19.7381783  34.0196109  39.6052027  19.6229672  35.3564525
  44.7490168   3.7967446  62.5811291  44.0972090   4.4949296  62.6437140
  44.2600870   2.9952192  62.7675056  22.9281092  40.2629328   2.6931348
  22.6193237  39.5972204   3.3077139  22.1529341  40.7912922   2.5029409
   0.1461198  28.7627077  36.2010384   0.1803149  28.4257293  37.0963073
   0.4011957  28.0188847  35.6552386  59.4977951   0.8467697  66.1398697
  58.8614464   0.7012086  66.8399429  59.1629696   1.6083020  65.6663799
  40.3913355  34.5482254  60.5466843  39.9042153  34.0407515  59.8975182
  39.7232366  34.8611021  61.1565876  58.0035067  58.5468054   2.6129943
  58.5845041  59.1106367   2.1023411  57.1377134  58.6842155   2.2286057
  31.2260485  28.0551481  15.0689137  30.7246280  27.2459269  14.9690664
  30.6265903  28.7450123  14.7843647  26.2752128  17.4578083  61.8592739
  26.0109711  17.5798082  62.7711535  25.7354474  16.7308760  61.5487051
  79.9801445  36.9382644   2.8751186  79.4249249  36.2990546   2.4286038
  79.5861053  37.7851892   2.6661125   2.7014783  31.8418717  61.9470930
   3.4323984  32.1010804  62.5081635   3.0368590  31.9404817  61.0560131
  42.9131794  17.9774439  60.4174757  43.7749100  18.3086669  60.1645994
  42.8323269  18.2031333  61.3441706  63.9585781  65.6179762  10.6076741
  64.1961813  65.9454107   9.7401702  64.4218111  64.7838116  10.6839752
  17.2408462   6.3084406  37.8088760  16.9878042   5.3952658  37.9442024
  16.8543112   6.7763048  38.5490942   7.4305320  51.9617510  17.9252219
   7.9346907  51.2202883  18.2603168   6.9175440  52.2613430  18.6757672
  45.4921675  12.5303972  65.3035402  44.6140051  12.8418803  65.0843573
  46.0805178  13.1621122  64.8900127  37.3163247  11.9826877  39.7737455
  36.4048719  11.8418264  39.5175362  37.3090863  11.9198716  40.7288551
  12.8707874  11.0890615  36.7333555  13.4488285  11.3889670  37.4348950
  12.0493019  10.8742917  37.1752453  15.2536571  32.7084064  51.7783260
  14.8916662  32.9933262  52.6173830  14.8372507  31.8625998  51.6126537
  37.2507071  32.2366834   1.2703429  38.1839943  32.0859504   1.1203947
  37.2227764  32.8818107   1.9769263  39.6235204  63.0977821  62.2506523
  38.8346386  62.5885773  62.4366903  39.5520067  63.3196163  61.3222599
  20.2819371  55.7300472  45.2495670  19.6793425  56.4304066  45.4997969
  21.0398793  56.1856985  44.8833227  80.0912380  37.3346329  58.5626650
  80.2307606  36.4722466  58.1714392  80.2679253  37.9513431  57.8522539
  27.5341344  71.5133667  54.9469280  27.5026226  71.9967890  55.7724810
  26.7368221  70.9837246  54.9489355  59.8332596  47.3564053  14.9178159
  59.3865967  48.1954575  14.8050237  59.3077421  46.8908787  15.5684674
  46.8154860  18.1264699  49.5901155  45.9761715  18.4867609  49.8764277
  47.1263075  18.7418830  48.9261246  32.0356846  24.4016600  63.5518408
  31.6012216  24.6202874  62.7274179  32.7631497  25.0209761  63.6107922
  54.7087288  63.3936977  45.8363676  55.6032991  63.0551910  45.7992125
  54.7566032  64.2451954  45.4017496  36.9854808  23.7063694  49.9903965
  36.6016603  24.5793200  49.9075174  36.2337756  23.1138015  49.9964094
  43.7707090  22.9889297  41.8223476  43.1498098  23.4549880  42.3822594
  44.6312380  23.2416987  42.1567488  18.3757746  31.8798399  23.6309075
  17.4810302  32.2092342  23.5462737  18.2725894  30.9906340  23.9698672
  12.8519464  18.8878512  56.3106394  12.4327695  18.3187950  56.9561625
  12.1474838  19.1259301  55.7079124  54.8810816   5.3138369  54.5868587
  54.1735172   5.1536053  53.9624310  54.4354057   5.4632419  55.4206944
  27.4529862   2.0914261  46.7594671  27.1820092   2.7612576  47.3872614
  26.6330123   1.7016548  46.4562273  59.9180222  24.7355080  57.7892351
  59.1939783  24.1585541  57.5460911  60.4140997  24.8518133  56.9789219
  25.5706644   9.6701658  37.5423527  24.7459102   9.3618119  37.1669459
  25.3095603  10.1719272  38.3145499  57.0030975  55.8140755  36.5363789
  57.7616882  55.4447508  36.0843015  56.4415026  56.1414003  35.8337402
  11.3519764  24.5326281  51.8899393  11.5375745  24.9326515  51.0403728
  10.4754901  24.8445153  52.1151686  56.0699272  74.3811941  13.3864367
  55.2628422  74.8955774  13.4025168  55.8260727  73.5407639  13.7743080
  20.0652766  44.4293261  45.6222248  20.3323531  45.3271389  45.8192825
  20.8483315  44.0224171  45.2514362  60.6321764  37.4580050  44.1113377
  59.9134970  37.7045846  44.6935177  61.1210966  36.7967486  44.6011639
  27.9182196   7.2295266  42.9860640  28.7813735   7.5546890  43.2419300
  27.3769855   7.3468482  43.7667894  73.9179039   3.2198009  56.4570999
  73.0989075   2.8783756  56.8161297  73.6432076   3.8624385  55.8030415
  56.3605213   2.1521494  55.2486229  55.4915047   1.7797613  55.3981638
  56.4038897   2.9039031  55.8395720  19.0168619   0.0224225  55.7727575
  18.5829794   0.8712742  55.6865740  18.6062455  -0.3798335  56.5381432
  63.8560724  67.2940636   8.1925714  63.2706785  67.7568960   7.5931269
  64.6933079  67.7506161   8.1099194  61.9520044  76.1462593  23.5822248
  62.7531624  76.2384987  23.0665994  61.4082146  76.8870831  23.3144546
  17.6074588  49.8367500  65.3049278  17.0191765  49.3350410  65.8692360
  18.1558323  50.3336239  65.9120798  44.0053415  22.3019195  35.4901528
  44.0049314  21.7721200  34.6929431  43.3505583  22.9807758  35.3269243
  14.8568141  20.6110477  56.8378639  14.1662467  19.9535656  56.7538118
  14.5553255  21.1865330  57.5408268  35.1549864   5.7268196  56.5788412
  35.6453133   5.8739483  57.3876429  34.8947835   6.6027600  56.2937880
  11.7312264  34.5869374  16.4993989  11.9733346  35.4759073  16.7589152
  10.8707178  34.4479346  16.8949175  71.0817719  53.7747097  23.4536123
  70.5820227  54.5821953  23.3333802  70.8568001  53.2383585  22.6933837
  16.4346433  25.2179384  54.3392086  16.0923910  24.3534160  54.1118431
  17.2456443  25.0370908  54.8143959  80.3488922  65.7375956  36.8191814
  79.8793745  64.9047995  36.7718506  79.8014545  66.2897921  37.3774147
   5.1290309  20.6007934  57.9935980   5.7668811  20.7013869  57.2870159
   5.5977750  20.8782291  58.7807083  19.9657094  14.3972886  18.1072068
  19.7421467  15.2136576  18.5541868  19.5761597  13.7122774  18.6505699
  34.5087886  11.6921270  39.2661142  34.5159101  10.7363033  39.2153001
  33.6357117  11.9080603  39.5937490  51.7587423  54.5163250  13.0445361
  52.6673651  54.2330456  13.1464672  51.4794302  54.7484159  13.9301717
  13.4491169  14.0723598  39.2587829  13.2670844  14.1798937  40.1923418
  12.9405439  13.3029509  39.0026665  32.4086642  27.5313306  45.7338190
  33.2952261  27.2935915  45.4623032  32.1840525  26.8891025  46.4071131
  54.1362476  38.9690042  18.5232735  54.6054125  39.7098565  18.1395340
  53.2125616  39.2121911  18.4609127  42.4535227  18.6541140  47.2396278
  42.9065657  19.0694702  46.5058327  42.3253918  17.7477121  46.9598961
  58.6283779  18.8739562  57.1168947  58.4848881  18.7680125  56.1764622
  58.1403732  18.1538200  57.5162601  60.8330822  39.8114705   4.2767704
  60.9886503  40.4599094   4.9634722  59.9082279  39.5824862   4.3686551
  68.3797216  12.8078210  39.6813202  68.1745529  13.7013400  39.4060755
  68.9004564  12.4494016  38.9625669  47.6425505  65.4331255  62.5832844
  47.3346758  65.8042336  63.4101629  47.3174381  66.0358191  61.9144821
  55.1020670  71.1783600  10.8781457  54.3850327  70.7395983  11.3359475
  55.8783484  70.6644535  11.1006725  21.2589788  63.7539911  45.8637714
  21.2935042  62.7986431  45.8153057  20.5870748  64.0019035  45.2286959
  32.0116591  15.8680284  41.3282394  32.7507186  15.8336926  41.9355679
  31.2407160  15.7442594  41.8819141  10.0852227  63.8948107  43.9538622
  10.6468964  64.6696186  43.9331913   9.3838108  64.1236544  44.5636845
  17.4953771  36.6619015  34.2640281  17.7728617  37.1988177  35.0062895
  16.8774974  37.2150493  33.7860250   2.9707778  31.2617850  40.1060915
   3.1028301  31.1998892  41.0521173   3.0471882  32.1964431  39.9142385
   3.1602615  75.9404755  62.8952217   2.8424570  75.6811237  62.0303726
   3.5267022  76.8148804  62.7634382  31.3090086   6.4169455  13.9069438
  30.4881787   6.0007375  13.6438072  31.8862486   6.3070846  13.1513262
   1.7355797  62.7860498   3.3679152   2.4559416  63.0925131   2.8171057
   0.9668998  63.2510614   3.0375671  56.0711384  65.8188343  53.8622522
  55.4984999  65.7140303  53.1024265  56.8980789  66.1338329  53.4973145
  36.8060684  16.4085221  60.8907938  35.9945512  16.5881646  61.3655567
  37.4406743  16.1929750  61.5742016  36.0598803  50.0583124   8.4908634
  36.4470673  49.6672583   7.7076674  35.7907081  49.3102932   9.0240079
  38.4302449  17.6709318  28.1654239  37.7305579  17.4504673  27.5505519
  38.3832002  18.6231935  28.2503772  43.0675459  38.6851788  14.7071457
  42.3860979  38.8328671  15.3629267  42.5936699  38.3778954  13.9343262
  73.1051111   1.4467061  -0.3450632  73.0712414   2.0606348   0.3885416
  72.6432085   0.6701707  -0.0290460  30.6138945  11.7867661  42.4974394
  30.2039766  11.6620386  43.3533859  29.9547625  12.2511983  41.9816113
  74.3313980  22.5160003   5.0326848  74.0291166  22.7561212   4.1567853
  74.2960215  23.3327699   5.5305481  12.7613735  52.5278139   7.9644829
  13.6382961  52.1655750   8.0910617  12.1746218  51.7802286   8.0788207
  48.8305759  59.9597645  65.6484175  49.5890474  59.7398186  65.1075125
  48.9975834  59.5234585  66.4838648   4.0694419  14.3102777  34.9993038
   3.6725840  13.4424043  34.9249411   3.3550993  14.8759747  35.2924490
  59.8782587  50.8150911   9.1735035  59.3932819  50.0325966   9.4356781
  59.6919823  51.4540291   9.8614645  37.7193046  46.3005161  17.5903058
  37.7728438  45.4537678  18.0334556  38.5445046  46.3723898  17.1106052
  77.3695612  56.9130230   2.5682226  77.0631981  56.8880272   3.4747255
  78.3134413  57.0559168   2.6382524  61.4744616  25.4174900  40.4811001
  61.9237328  24.6159267  40.2129841  62.1071339  26.1152148  40.3103924
   2.5246707  47.4361181  32.8565121   1.6545303  47.1120691  32.6239610
   2.5754204  48.3003616  32.4481821  19.8087955  27.4588299  61.6390228
  19.5602441  26.5692902  61.3876772  20.4273152  27.3400640  62.3598242
  21.8051386  19.1846895   0.7088073  21.9201159  19.5000219   1.6052321
  21.1178946  18.5216522   0.7744391  10.1478660  69.8758078  27.3543143
   9.8909885  70.5596638  26.7357779   9.3834239  69.3022728  27.4083376
  75.0076818   9.6882236   6.3768113  74.1582155   9.6846038   6.8179792
  75.2019882  10.6152904   6.2388873  50.1529455  61.8569946  20.5738378
  50.0156403  62.2757864  21.4235401  50.5156183  60.9970570  20.7864642
   0.3854443   2.3215503   5.0903946   0.4553977   3.2627913   5.2497792
   0.9332112   2.1676092   4.3206641  46.7005920  11.8546152  62.7841520
  47.4745655  11.4892209  63.2127285  46.9571972  12.7452707  62.5451565
   8.1197947  58.4126091  36.9716716   8.0815780  59.2534304  37.4275088
   7.4239552  58.4635830  36.3163543  15.2841854  39.4504523  57.8179979
  16.0699165  39.5746660  57.2856188  15.5466425  39.7186756  58.6985683
  17.7069771  30.8952618  39.4004536  17.5232506  31.7486358  39.0077329
  18.1879294  30.4187584  38.7237978  76.2251759  60.5215073  41.0360432
  76.9591999  61.0242414  40.6829071  75.4824829  60.7602549  40.4813910
  76.2216568  67.3555899  40.2148819  75.4091740  66.9510317  40.5189180
  76.5810204  67.7842855  40.9916115   6.7946476  20.5151224  43.4235001
   6.4305508  20.9793258  44.1772747   6.0565418  20.0205112  43.0674219
  53.2050371   7.4478906  22.2640657  53.1349993   6.6086406  22.7190232
  53.0664444   7.2326374  21.3417387  78.6731482  70.1316977  45.4028845
  78.8624573  70.5186892  44.5481157  78.4990549  70.8814096  45.9719706
  17.2947896  70.5385780  63.1093216  18.0178273  70.0112677  63.4490156
  17.3075211  71.3338661  63.6418533   0.9270009   5.2163970   4.8957032
   1.2788273   6.0653633   5.1634812   1.1708307   5.1361609   3.9735639
  43.1078386  27.3337579  11.5303719  42.5526476  27.2437882  10.7558393
  42.5527620  27.7756381  12.1729195  78.2043314  35.2845478  26.6924119
  77.8971004  34.9554610  27.5371265  77.6262140  34.8726439  26.0502672
  10.4242706  47.4531841  50.2550554  11.1237776  47.7722454  49.6848631
   9.6363127  47.8939342  49.9371052  36.6738081  32.3869467  31.6052628
  36.6089249  31.8341470  30.8265257  36.0876465  31.9756532  32.2404647
  46.1825943  16.2805021  43.3221960  46.7616081  16.1376524  42.5734806
  46.7549515  16.6326499  44.0038347  73.6669779  48.7498093  15.8902180
  74.1108990  47.9454708  15.6215119  74.2670298  49.4509268  15.6360281
  40.0281334  37.3058844  33.7581778  40.5517864  37.0714784  34.5243835
  39.1396189  37.4110055  34.0983653   4.5756385  48.4671068  11.5009725
   3.9160460  48.3621883  12.1866560   4.5329863  49.3944120  11.2674820
   2.9524577  76.2540436  65.6339359   2.9326278  75.9341431  64.7319889
   3.8806996  76.4010239  65.8155823  23.3124995  25.1988816   5.3954440
  22.5867152  25.6245184   4.9390405  23.7233233  25.9012866   5.8995110
  56.3815260  17.8202188  39.2366862  55.9138966  17.3747218  39.9431467
  57.2329283  18.0404615  39.6146250  12.9611659  69.9332857  64.2071915
  12.3300564  69.5525503  64.8179054  13.6113822  70.3567076  64.7676945
  76.1994123  68.6426353  31.9183421  76.3057518  69.5599413  32.1702838
  76.7872810  68.1640339  32.5027966  45.6754255   7.5011325  29.7453880
  46.0644674   8.2059592  29.2276073  44.7431993   7.5325119  29.5304418
  61.7936707  54.1801262  58.0917501  62.4253798  53.4671211  58.1855583
  61.0418034  53.7782621  57.6565123  46.3437366  18.2784009  19.2819250
  46.9903851  18.8341546  19.7169185  46.8587351  17.7295923  18.6904705
   9.6250343  60.0489187  52.6768589   9.3257761  60.6955099  53.3160782
  10.0580156  60.5661440  51.9977188  10.7772708  16.5392721  37.5254321
  10.6941676  16.2961566  38.4475064  11.6913617  16.8066692  37.4296808
  29.0554380  15.3349960  57.0870113  29.9259305  15.1976025  56.7133856
  28.9160943  16.2801838  57.0283985  25.6397343  10.5173051  53.5896397
  26.3101149  10.7394636  54.2357540  25.2980566  11.3627613  53.2986212
   6.7125404   9.4239968  46.4006996   5.8519053   9.0075922  46.3543797
   7.3273528   8.7304842  46.1613750   8.6933398  71.2708616  64.2063951
   7.9878008  70.6414747  64.3557787   9.4830245  70.8213091  64.5072746
  52.7740955  70.0900936   5.5870092  52.6512957  71.0095787   5.3510118
  51.8866920  69.7344542   5.6346065  79.2169952  76.9299507  47.6265621
  78.4222698  77.1988058  48.0873871  79.9313736  77.1992922  48.2039261
  27.9587269  43.0573606  60.8564568  27.8166294  42.1109104  60.8730173
  28.3501196  43.2557154  61.7071629  33.2834125  50.3199577  19.6716464
  33.5624909  49.7206497  20.3638744  32.3271275  50.2990246  19.7078669
  73.1390333   4.4889557  13.1213629  73.8687563   4.9488679  12.7063680
  72.6308346   4.1372561  12.3904252  28.9689350  57.1056986   9.3524277
  28.6543798  56.4057398   9.9245679  29.7109818  56.7194891   8.8871980
  76.4184189  68.0105162  55.3557014  76.2458897  67.8538227  54.4273090
  75.8126783  67.4277163  55.8135796  55.7203913  57.9899836  14.8423910
  56.0417747  57.0931101  14.7498488  55.6989908  58.3302307  13.9479601
  32.9238558  36.1660480  47.6655149  33.8281441  36.1051655  47.9733944
  32.9692769  36.7402315  46.9010019  29.8820686  69.5716810   6.9144666
  29.7624230  69.0698004   7.7207124  29.0246391  69.9624586   6.7461282
  29.4091463  42.7606678  63.1898451  29.6887064  41.8473864  63.1266069
  29.6865106  43.0360985  64.0635967  65.1396132  55.7623434  16.6779280
  64.3346786  55.6161404  17.1748579  64.8448467  55.8872128  15.7758462
  55.6992674  20.5666447  65.7538033  56.4174080  20.5588794  66.3866091
  55.4991007  19.6421385  65.6073284  28.7465262  38.2717824  27.5443029
  28.7954998  38.4132028  28.4897304  29.5754457  38.6123395  27.2079277
  21.9859099  52.5722122  63.2144213  21.6266894  52.3520947  62.3549223
  22.9129887  52.7442598  63.0496311  52.5540304  17.0345485  44.6243858
  52.5289488  17.0056760  43.6679506  53.4050941  17.4213362  44.8300982
  77.4773884  30.6057835  10.7805479  77.8858471  31.0525751  11.5220129
  76.7050314  30.1804709  11.1531126  60.5285072  66.2437391   4.7233668
  59.7422600  66.2845993   4.1789606  61.1854792  66.7376041   4.2327350
  53.6050272  58.3026361  10.5143714  53.4081221  59.2010117  10.7796562
  53.8963127  58.3795738   9.6058208  43.5746479  16.4123869  64.6231222
  43.0431890  16.5374219  63.8368988  43.7466860  17.2992682  64.9394751
  28.9085889  66.6148758  31.4796090  28.3718133  67.1271944  32.0842814
  28.3248615  66.4216137  30.7460237  17.8391135  20.8311319  42.7450371
  18.7145340  20.9540820  43.1121254  17.2470403  20.9824300  43.4817839
  43.4141588  63.9375496   7.6254433  42.7076244  63.3907175   7.9689735
  43.0211353  64.3993473   6.8848336  20.8185911  46.8740225  59.9519777
  20.8295226  45.9606075  59.6660042  20.5478144  46.8346024  60.8692312
  32.2656202  15.2095187  44.9178410  32.3123670  15.4945850  45.8304119
  33.0913043  15.5029607  44.5326567  35.4850197  65.0590658   4.4103578
  35.0453424  64.2142153   4.3147174  35.5750346  65.3849554   3.5148561
  63.2451391  71.9372606  12.0752978  63.6426592  72.1719790  12.9138184
  63.7702131  71.2022018  11.7587197  11.4077413   0.8101081  13.1094348
  11.7561567   1.4005342  13.7774432  10.9086716   0.1587353  13.6022580
  29.1986871  71.7800045  62.3580837  29.0110803  70.9979391  61.8390369
  28.9036298  71.5578508  63.2411575  45.1040602  57.2015381   1.7940424
  45.0369406  56.2753868   2.0263530  44.6202564  57.2778606   0.9716430
  31.4782667  28.0391741  60.0657177  31.2648368  28.5350323  59.2752743
  32.4316216  28.0932260  60.1322460  67.2918510  59.7508430   6.3435984
  66.9140005  60.6270409   6.2678879  66.5376234  59.1619253   6.3203281
  75.1966715  73.6030245  64.6633387  74.4420242  73.2060242  64.2284489
  75.6774759  74.0379620  63.9591455  59.7615767  14.9036241   3.4945983
  60.6546926  14.5763695   3.3874622  59.2983437  14.1941702   3.9399323
  56.6502142  69.9008989   1.9926727  56.7143536  69.3061829   2.7399537
  55.7142878  69.9375248   1.7953579  60.5004358   9.0778959  51.9306898
  60.0103951   8.3461165  51.5557337  60.8035898   8.7536496  52.7787399
  68.6858034  71.3111401  12.1711564  69.4832325  70.9989262  11.7435336
  68.2568884  71.8549252  11.5104258  28.5374045  62.9699564  47.4210978
  29.2584682  63.0707979  46.7997074  28.1644177  62.1121264  47.2180223
  49.9011040  14.9018526  59.2495251  49.1236448  14.3462384  59.1939592
  50.2752161  14.8790836  58.3687592  21.1872220  63.3762312  41.0111904
  21.7187381  62.6413774  40.7050705  21.7271447  63.8010979  41.6776752
  47.1637726  11.2506258  46.5548229  48.0565882  11.5232003  46.3431120
  47.2580624  10.3571272  46.8849754  44.9874926  31.7236996  65.2329397
  44.9073029  32.3496652  64.5132399  44.6228838  32.1815562  65.9903383
  37.0479083  28.4431076  19.0131450  37.0768285  27.4893236  18.9377093
  36.3923454  28.6100388  19.6903491  31.2396836  23.0207944  54.8121595
  30.2995849  23.1927299  54.8658848  31.4285040  23.0130196  53.8738012
  31.5658736  23.9430666  66.0955954  30.6919098  24.1564226  66.4225483
  31.4965153  24.0398765  65.1458311  60.8383608  64.6392632  46.1316633
  60.7052088  63.7468433  45.8121586  61.2179613  64.5274830  47.0032358
  54.7292852  47.7694750   9.2424530  54.9812460  46.9407511   8.8350677
  55.3360558  47.8700447   9.9759054  67.1614599  55.5263233   7.9801726
  66.5532112  55.9528828   8.5837549  67.9023170  55.2688551   8.5288769
  63.7806559  49.1743612  11.1957610  64.3350554  49.7670507  11.7032945
  64.2126751  49.1129875  10.3438067  64.8754263  58.9832067   8.7118304
  64.6008158  58.5307550   7.9142672  64.5388222  58.4391499   9.4238198
  63.0133772  64.3429804  16.0167336  62.3178101  65.0002909  15.9978986
  62.9664135  63.9199305  15.1593792  43.2557249  71.5345860  33.0608296
  42.3249388  71.5523815  33.2834482  43.6000061  70.7753181  33.5311651
  13.7742817  51.6589165  41.5368986  14.4363225  52.3234034  41.7276669
  13.0793452  52.1363688  41.0837603  36.0133743  27.0743608  50.3628397
  36.8157530  27.0452404  49.8417139  35.6777120  27.9618096  50.2363634
  40.2000093  29.3983531  49.7542572  41.1399269  29.5580149  49.6688604
  40.1002407  29.0161300  50.6261444  62.0582390  13.0921221  52.5949478
  61.7626143  12.9821801  53.4986877  62.3655176  12.2233272  52.3360872
  67.3975420  45.0387430  39.0813994  68.1146240  45.3135729  38.5100007
  67.6637554  44.1771221  39.4022870   3.7030560   8.5113215   7.9654568
   3.3656877   9.4064713   7.9319674   3.3284771   8.0851918   7.1945250
  23.8798833  15.6885147  48.0313540  23.7786317  14.9161947  48.5876846
  23.7254000  16.4285445  48.6184835  53.7510872  59.5218515  53.2826853
  53.3062458  59.3175220  54.1052389  53.0769491  59.9327612  52.7414608
  31.9319725  27.1347070  41.3169765  32.8623271  27.2984433  41.4714479
  31.5314460  27.1919227  42.1844673   6.9471204  72.5331116   2.6900992
   7.5036389  71.8461227   3.0569336   7.4548471  73.3370256   2.8003919
  29.0976644  24.4852901  46.8196774  29.3400717  25.3130960  46.4047003
  28.4692550  24.0895987  46.2157202   3.2885370  15.1164126  10.8765495
   2.4525982  15.5611742  10.7364559   3.9456719  15.8057106  10.7802427
  46.3054371  73.7873936   2.6167452  46.5207863  73.5210371   3.5105622
  45.3749704  74.0094614   2.6506069   7.5186068  63.4662867  16.2716544
   7.0125729  63.1698847  17.0281649   7.4785882  62.7350092  15.6553209
  21.6930509  14.5015764  12.1765363  22.5368142  14.9163389  11.9969034
  21.8935609  13.8176608  12.8155088  59.8964214  26.6179419  52.3822308
  60.3653383  26.6624117  53.2155228  59.7962046  25.6810784  52.2134972
  50.4460859  20.1086783  62.3420858  50.5926943  19.1628766  62.3560476
  51.2749481  20.4750109  62.0338345  61.3330841  40.7162189  44.2122126
  62.0358849  40.5456638  43.5851431  60.8391619  39.8970389  44.2470551
   8.0170393  12.3374438   9.7104269   7.8977323  11.4179265   9.4727600
   8.7650925  12.3353553  10.3076231   0.2045336  11.3261521   4.9204177
   0.7533307  12.1102023   4.9026087  -0.5084078  11.5463877   5.5199528
  33.3464098  73.4550714   8.9590615  32.4138093  73.6199570   8.8201314
  33.4826851  72.5640488   8.6369801  71.8818617  31.9561410  65.3452349
  72.2359705  31.6765046  64.5010519  71.3563728  32.7294827  65.1402187
  48.7875414  22.7702570  60.4698610  49.1724682  23.3408070  61.1350965
  49.5297766  22.4951911  59.9316645  78.4178925  51.4669418  18.1405187
  79.2903709  51.7547655  17.8718746  77.8560305  52.2254705  17.9818356
  17.3704159  21.4958358  56.8921375  17.9516625  20.9955621  57.4649477
  16.5223885  21.0589290  56.9708395  61.4211464   3.5173139   4.9666506
  61.3846874   4.2238712   4.3219188  60.5231380   3.1892654   5.0135177
   0.6556205  62.6201057  66.5829325   0.9876346  61.7477560  66.3707972
   0.8865047  62.7470112  67.5031614  43.8364840  10.1809943  58.9392281
  44.0817833   9.8672104  58.0688238  42.8944683  10.0205660  58.9949751
  73.9100933  44.4216251  50.6315184  74.6467495  45.0327587  50.6223106
  73.1366539  44.9799824  50.7106304  23.6091042  35.7940555  58.2190323
  24.3478489  36.3319159  57.9340792  23.4991670  35.1487947  57.5206137
  81.4625454   9.4210249  41.9750929  81.2223530  10.1195168  42.5839043
  80.6953430   8.8490999  41.9520140  36.7591786  32.7199674  35.1389742
  36.5562892  31.7974496  34.9839616  35.9821939  33.1901741  34.8365974
  51.7334127  67.0153809  57.5959539  52.2332478  67.7470112  57.9580498
  51.9245863  66.2820339  58.1806612  74.1646767  30.0558662  31.0173535
  74.4183254  29.5768237  30.2284217  73.3121681  30.4350448  30.8036232
  11.3821614  40.1587009  44.2012119  10.9438944  40.9991360  44.3347025
  12.3060095  40.3402710  44.3737459  61.9235420   1.2469435  64.6142483
  61.0766840   1.2162749  65.0593567  62.2376347   0.3429697  64.6344852
  33.7393928   1.9098291  62.2828007  33.9635301   2.1613798  61.3868570
  34.1765499   2.5614426  62.8310061  22.4751711  24.3235254  34.8870873
  23.3012938  24.3209887  35.3705621  22.2189784  25.2452636  34.8554969
  69.3536806  69.0960550  52.2077179  69.1376638  68.6317587  53.0164194
  70.3044605  69.2021990  52.2391367  46.0525656  20.2085638  45.3651857
  46.0628986  19.2668211  45.5362082  46.8840075  20.5252457  45.7182407
  42.4563313   4.5058063  45.5037546  41.7768192   5.0783902  45.1478815
  42.5208521   4.7549886  46.4256954   5.2823538  17.2680378  48.5392809
   4.5982480  17.3128057  47.8712797   5.8566260  16.5602410  48.2469320
  50.1460123  69.0065336   5.6308126  49.6761227  68.6693335   4.8680982
  49.4945860  69.0078306   6.3321495  53.7822342  53.6104488   8.1438655
  52.9118061  53.8020277   8.4929806  54.3730307  53.7490129   8.8841307
  15.2426934  27.6125836  46.5141010  16.1475229  27.7239537  46.8058395
  14.7678137  27.3482108  47.3020267  29.6167326  33.1718493  55.9222937
  28.9411211  33.7134290  55.5142832  30.0003791  32.6800990  55.1961899
  37.9412150  30.3988695   8.4125227  38.4237933  29.6241736   8.1240869
  38.4772348  31.1368275   8.1221229  72.3489141  67.9251719  40.1276112
  72.5649118  67.6837397  41.0283279  71.4674520  68.2941532  40.1833630
  54.2655993   8.2864785  55.5878878  53.4352016   7.8654188  55.3656626
  54.4846582   8.8068789  54.8149538  46.6883993  28.8701248  51.1332560
  45.8195210  28.4986472  51.2858820  47.0784903  28.3019543  50.4689932
   8.4022492  11.1644685  34.8632431   8.6763030  11.5039384  35.7152319
   7.8103328  11.8329155  34.5182133  56.1561680  27.0636272  55.4243612
  56.3426304  27.6191354  54.6674776  56.9359303  26.5163755  55.5177116
  30.7203269   8.7115610  58.2302094  30.2209449   8.0619973  57.7353191
  31.2420440   8.1952959  58.8446331  45.1260710  44.3835831  62.4526119
  44.5265818  43.7843657  62.8973389  44.9422121  44.2590904  61.5215206
  60.7706213   0.9508158  49.1552830  59.9423265   0.9161183  48.6767864
  60.5229378   1.2027644  50.0448942  36.4522600  10.5717003  32.5403142
  37.3309827  10.8649123  32.7813649  36.3482356   9.7326320  32.9890609
  30.8809066   7.6363552  51.6960478  30.1550174   7.2186643  52.1595716
  30.5512047   8.5056937  51.4685011   0.7488365  34.1010070  61.3747835
   1.4593008  33.4919429  61.5760565   0.6311428  34.6060181  62.1793604
  12.0142496  43.9607859  54.1153145  12.1840012  44.7676182  54.6015644
  11.6854489  44.2572689  53.2666540  13.4010160  43.7639666  45.3383493
  12.8115296  44.4841099  45.5622530  13.1599653  43.0607986  45.9414101
   0.3727437  20.5268121  27.7264333   0.7224189  20.9248352  28.5236382
   0.7182175  19.6341550  27.7329993   8.4385395  55.2645588   6.9470483
   8.2359749  55.8502769   7.6765239   8.4884340  55.8405304   6.1841583
  59.6852922  36.3601780   5.7773924  59.4169283  36.8498802   6.5548265
  59.8951769  35.4858708   6.1056715  30.6008101  32.0544004  40.5924845
  31.2970495  31.7191362  41.1573553  30.6982565  31.5646696  39.7758436
  60.6312943  73.5748053   4.5038149  61.3843727  73.8820171   5.0085151
  60.9146929  73.6328316   3.5913733  20.2449012  57.8973484  35.2852607
  19.8906446  58.7038708  34.9107599  20.5109286  57.3777056  34.5266867
  35.6176805  60.1611280   0.6236971  34.7165132  59.9311876   0.3972960
  35.5831385  61.0965490   0.8237704  25.6602192  73.1915855  41.2143946
  24.9557304  73.4823370  40.6352663  26.1469579  72.5505495  40.6963348
  66.7549849  63.2592058  30.8552003  66.5674400  63.6761951  30.0142598
  66.7209578  62.3206997  30.6700468  24.8955822  47.8327179   4.5435545
  24.4890475  48.0501890   5.3824031  25.7302713  47.4280357   4.7796834
  16.0534883  21.2524199  37.5148869  16.2310016  22.1835661  37.6478696
  16.7649889  20.8051300  37.9730701  48.8038349  16.1951017  49.6503687
  48.0289888  16.7545772  49.5971394  49.0133190  15.9887826  48.7394476
  82.0644338  14.0453589  37.3976660  82.7715296  14.0228713  36.7528868
  82.5116673  14.0383542  38.2439327  36.9808030  28.2832432  62.5837517
  36.0271740  28.3628821  62.6056862  37.2370195  28.2191467  63.5037899
  68.6184311  46.3697290  13.7219858  68.4701490  47.2265530  13.3218682
  68.0769062  45.7692385  13.2097399  39.1486931  22.2044873  48.9441538
  38.4982204  22.7129221  49.4285154  38.9017940  22.3126745  48.0256939
  77.0068264  32.0810771  55.8467960  77.2442389  31.7356753  56.7073584
  76.2532139  31.5559220  55.5775166  66.1844730   5.0308424   7.3100215
  65.9945440   4.8979411   8.2387280  67.1253109   4.8723668   7.2328931
   9.5012838  34.8377538  48.4658289   9.2963237  34.8767567  49.4000149
   9.3534571  33.9229059  48.2261801  25.4139686   5.0670832   3.9637861
  26.0741544   5.1151025   4.6552193  25.5381823   4.2018461   3.5737008
  51.4548159  56.4015150  24.1939139  50.8757687  55.6871700  23.9281297
  52.3205280  56.1362314  23.8834286  21.9945669  25.3098249  40.4319334
  22.1533465  26.2237144  40.6682110  22.8665948  24.9167538  40.3959751
  63.5232925  77.4238920  38.4127021  62.7527046  76.8694019  38.2903767
  63.4451246  77.7480459  39.3099451  54.9707127  21.7185783  24.5021343
  54.8226690  20.7749891  24.4392657  54.0925360  22.0994091  24.5009136
  10.4813373  44.9218893  61.8769026  10.2122808  44.5271349  61.0474348
  10.0299346  44.4062090  62.5451374  40.2257538  12.9940438  61.3356924
  40.0664234  12.6787829  60.4460526  40.9313107  12.4369586  61.6644430
  18.1294954  39.4637299  32.6209760  17.1981204  39.2772460  32.7392769
  18.5276341  39.2379665  33.4616590  31.9399714  65.6892490  14.6390045
  32.3052716  66.1948347  15.3650677  31.0283899  65.5368137  14.8880303
  70.2274656  28.5953355  57.5908470  69.2970419  28.3705831  57.5857973
  70.2467060  29.5392919  57.4333429  58.3593941  30.8826017  54.1390371
  57.5920057  30.3664088  54.3858004  58.8252401  30.3329515  53.5088730
  50.0894547  33.3382559  58.9773607  49.7400951  32.4593282  58.8301706
  49.5635319  33.6876678  59.6967697  31.4792228   3.5403308   1.9061807
  31.3801217   4.3835920   1.4642285  30.6583977   3.4225839   2.3843169
  49.5607090  33.5477591  63.8323784  49.0049362  32.8346586  63.5179996
  49.0300560  34.3354201  63.7130976  39.5416808  55.1903391  17.6284432
  40.3066587  55.7576132  17.7245903  39.5327640  54.9554873  16.7005432
  60.7653522  60.5547094  34.9975133  60.4032278  60.5049038  34.1128540
  60.0153875  60.4016256  35.5722713  53.5975790  43.3011770  43.4681225
  53.8244152  42.5862932  44.0628576  52.9326200  42.9289818  42.8888702
  41.9826317  27.8843331  52.8026676  42.0903969  28.6062169  53.4219456
  41.0588121  27.9177022  52.5543213  59.7417641  17.8507543  10.7833445
  59.7740507  17.3014617  11.5665853  59.2062759  17.3542452  10.1645041
  56.9744682  31.4116621  19.1753817  57.0902443  30.8318615  18.4226143
  56.0304642  31.5644646  19.2170620  30.8470964  19.8834145  61.3581944
  30.2035475  20.1459455  62.0163393  30.4066944  19.2012346  60.8513308
  28.3226943  12.4038541  38.8295722  28.7719297  12.4283278  37.9846931
  27.9587746  13.2831252  38.9328933   8.8056123  44.8840189  43.5330105
   9.4482857  45.4617548  43.9446211   9.0278041  44.9032164  42.6021528
  73.6189508  73.8064814  66.8070984  74.2380190  73.7226677  66.0818672
  72.9323959  73.1690168  66.6108370  66.3957787   5.5647725  22.0364118
  66.7197180   4.6681646  22.1223760  66.5086985   5.9448004  22.9076529
  32.9880524  73.6667252  46.9281292  33.4074092  73.7817430  47.7808571
  33.4994364  74.2157316  46.3337326   8.6181265  70.3512287  60.5168724
   8.0034989  71.0333109  60.2462578   8.1190670  69.8070908  61.1260366
  17.7818823  14.0371263  42.7062273  18.2729149  13.7426400  43.4732962
  17.4845624  14.9175704  42.9356861  34.2066479  50.5988550  -0.1039554
  34.5641804  51.4611578  -0.3156977  34.3094945  50.5232859   0.8446986
  74.6495581  45.0633669  39.5317626  73.9393997  44.7005177  40.0611448
  75.1272345  45.6359434  40.1319408  75.1180935  25.1839590  41.2574625
  74.7339821  24.3545389  41.5416336  75.8260632  25.3461146  41.8809319
  20.6537151   7.4434179   5.1686674  21.3648891   7.8658336   4.6869740
  20.5582213   7.9679698   5.9636253  61.2534380  33.6592364  61.5913486
  60.8299160  32.8010416  61.5723610  60.5448246  34.2717171  61.7887402
  42.3374605  42.8354263  52.6415920  41.7468166  43.5194588  52.3261976
  42.5234890  43.0789995  53.5483980  15.2173018  31.9442701  62.0500135
  14.3298268  32.2012234  62.3001957  15.6007111  31.5935612  62.8538990
  75.0130653   9.9976963  30.5375147  75.4253674  10.0349998  29.6744728
  75.5202007  10.6088650  31.0718513  29.3551111  26.3205957  48.8421774
  28.9642501  25.4997945  48.5426044  30.2589178  26.2837815  48.5291147
  38.1376839  15.3648627   0.9833085  37.3913312  15.7766032   1.4188038
  38.8539648  15.4395032   1.6138670  80.0719547  50.9118605  10.1143336
  80.6353474  50.1440239  10.0181949  80.6108189  51.5467453  10.5863190
  81.1701679  12.9497612  49.0554190  81.6765022  12.4461913  49.6928215
  80.2723503  12.6348090  49.1601086  79.2220354  69.7143173  35.0987196
  78.9282656  70.4114962  35.6851244  80.1383209  69.9238062  34.9177265
   1.5843928  32.1069717  56.6947269   0.8025110  32.5357819  57.0425987
   1.2900199  31.2273836  56.4582920  66.7699432  47.4866343  33.4010029
  65.8551121  47.6144648  33.6519456  66.7488432  46.7564678  32.7824163
  30.5830193  69.4881439  50.2691507  29.8162937  68.9287663  50.3934908
  30.5673862  70.0856113  51.0168266  74.1528463  42.6603317  48.3962536
  73.4057617  42.2562981  48.8376808  74.5533085  43.2169533  49.0641165
  45.1991129  41.7328596  60.2285480  44.9459791  42.3432255  59.5360184
  46.0304689  41.3637924  59.9304390  35.6336069  21.0876799   8.6053455
  35.6964946  21.0059786   7.6537144  36.3489580  21.6776657   8.8428795
  24.0382123  61.0316896   0.8471896  23.9379978  60.8927250  -0.0945526
  23.1779051  61.3347435   1.1374633  29.8176050  26.8372560  12.2586954
  29.2147660  26.2340140  12.6933408  29.5478559  27.7045488  12.5608099
  75.9867239  64.0221357  53.2233715  76.7794132  64.3001747  52.7644873
  76.2667370  63.8953876  54.1298819  46.8297338  25.7494617  54.8338985
  47.2309685  25.4003906  54.0380335  47.5302076  25.7250834  55.4857969
  57.3135233  32.6577735  66.9472980  57.7133894  31.8260050  67.2012663
  56.6241312  32.4134469  66.3298225  11.2484610  71.8725491   8.0537713
  11.6451001  71.1535978   8.5457218  10.7530260  72.3655939   8.7077469
  60.6882524  53.8524342  41.6791344  59.8312902  54.0179586  41.2861395
  61.2891674  54.4129038  41.1882067  66.4101362  47.9061413  50.1211596
  65.5544186  47.7074718  50.5012989  66.4188242  47.4318790  49.2897558
   7.6457351  26.0127711  59.3879890   8.2372952  25.9624743  58.6371517
   6.7698693  26.0287237  59.0021944  49.5306206  56.0279799  61.5081739
  50.2596283  56.2322330  62.0938921  48.9645100  55.4521656  62.0221615
  29.0609312  20.8858585   3.5041118  29.5393085  21.1912942   4.2748874
  28.5723019  20.1226711   3.8123637  67.2789764  66.3426495  47.1986008
  67.5846100  67.1091986  46.7136049  67.6732492  66.4351130  48.0659103
  64.3445778  45.3131056  37.4355984  65.2429247  45.5828047  37.2446346
  64.4388914  44.4986057  37.9294896  23.4722781   0.4413348   2.3502772
  23.8509750   0.0269857   3.1256062  22.7455997   0.9642601   2.6889777
  69.2055559  52.7033186  51.7534065  69.5883512  51.9487190  52.2009325
  69.2449379  52.4761534  50.8243895  79.1096306   5.4448700  63.9037418
  78.7192154   4.6780744  64.3230629  78.5086346   6.1614048  64.1077280
  57.5479650  69.1004276  46.6708326  56.8651485  69.6869469  46.9963884
  58.3681154  69.5209885  46.9291210  14.6189821  44.4311619  30.6958222
  14.1037321  44.2212486  31.4747238  15.4980552  44.6081400  31.0306931
  47.7862453  54.1092396  55.1198959  47.1593904  53.8064957  54.4629097
  47.2427320  54.4342995  55.8376455  44.7377729  55.8409548   7.8249586
  44.3429327  56.2110472   8.6144936  44.0795183  55.9742355   7.1429247
  70.4358006  59.2983961  25.7491899  70.7598782  59.9785805  25.1588011
  69.5726871  59.0719271  25.4028153  74.2994690  26.8844128  59.4963121
  74.6410990  27.6041865  60.0268269  73.7778473  26.3634682  60.1068544
  40.7369089  35.9100890  53.0718374  40.5532455  35.4670262  53.9002037
  39.8880553  35.9570503  52.6319838  43.0426025  28.2494545  55.9111071
  42.6461411  28.9150882  55.3489828  43.8545370  28.0108833  55.4638052
  39.3825746  43.5327244  64.4058943  40.2450466  43.8600302  64.6613216
  39.4414377  43.4172821  63.4575081  60.1834726  42.2742128  58.5115242
  61.0811138  42.2023201  58.8360310  59.6491385  42.3568296  59.3013954
  59.1701603  76.3456488  56.7622232  59.6058512  75.8393049  57.4478054
  59.8074913  77.0169878  56.5186167  47.7607250  62.0136404  28.2796025
  47.9258204  62.7133322  28.9115930  47.1934319  61.3992023  28.7452960
  79.6224737  25.6899524  56.0145855  79.2120028  24.8466158  55.8234501
  80.3604794  25.4734540  56.5844202  64.3739367  77.7850342  46.0856676
  63.5334492  78.2075834  45.9088469  64.1829205  76.8477535  46.0503912
  14.3018281  40.6344748   4.9118406  15.1997900  40.4038525   4.6737024
  13.7562418  40.1008320   4.3340921  54.6995449  28.1748009  46.7399740
  54.0017509  28.3389282  46.1056376  55.5055857  28.2158351  46.2253380
  22.0400262  46.4009762  36.0006642  21.5837002  45.9869432  36.7331743
  21.3998890  46.4011574  35.2890062  66.5734196  47.6237345  64.3328810
  66.5688419  47.8323221  65.2670670  66.5256310  46.6682720  64.3005705
  16.3416862   8.1145090  39.9180365  17.0905638   7.9996848  40.5030394
  16.4861453   8.9676070  39.5086622  49.7695684  53.0658197  64.9712181
  50.3199244  53.7841988  65.2830982  49.1389608  53.4842396  64.3851376
  50.4193783  66.1563396  33.6970472  49.6360254  66.5733624  33.3383155
  50.9180880  65.8815145  32.9276371  74.8263073  66.5278912   1.3865170
  74.5459557  65.6699896   1.0676961  74.1697693  67.1359444   1.0467244
  66.5005493  57.5466108  40.5067396  66.5668011  58.1468248  39.7640467
  67.0918894  56.8268585  40.2864981  64.8172855  38.2063460  27.5846648
  65.2013636  39.0754008  27.4686456  65.2010632  37.8816772  28.3992434
  51.4983892  48.7298822  40.5606890  51.8655682  48.3979511  41.3799763
  51.0132217  47.9887247  40.1980162  13.0799913  63.4554338   9.2164278
  12.3829925  64.0977669   9.0828919  13.3021796  63.5325098  10.1442873
  40.6090212  50.1269197  46.9802046  39.6727729  50.1664209  46.7849827
  41.0289669  50.5354738  46.2232637  41.7868042  54.3578577  35.5409265
  42.4116421  55.0285006  35.2651668  40.9284067  54.7476149  35.3751612
  39.2034626  73.8458586  50.7755184  39.2034197  73.8157129  49.8187923
  38.2863712  73.7200928  51.0191536  44.7269392  25.6199527   9.0503627
  44.5323706  26.5191126   9.3147218  44.2461777  25.5018044   8.2311326
  73.8692284  19.8765314  49.8548889  74.7115612  20.3308797  49.8715973
  73.9784908  19.1937196  49.1930246  34.4853187  27.0497179  65.7822084
  35.2591252  27.3251843  65.2907038  34.8340368  26.7035866  66.6036797
  51.5525770  60.0625658  45.4208994  51.6554165  61.0110331  45.4987621
  52.0045757  59.8386192  44.6074057  13.4805202  67.3499107  15.0463521
  13.6435211  67.8558207  14.2502880  13.6337626  67.9696417  15.7595706
  19.6154130  75.0110626  49.2751503  19.5123529  74.2407942  49.8339844
  20.5566669  75.1850176  49.2782640  63.8182449  39.7956777  50.6234598
  64.2935419  40.5934429  50.8556080  64.0864801  39.6103811  49.7234869
  56.2641096  46.8177271  55.4436922  55.6795597  47.2244596  54.8040819
  56.0793877  47.2769403  56.2629747  63.0531883  43.4001350  53.0889702
  63.2184935  43.7954712  52.2330427  62.2297382  43.7925768  53.3790493
  47.0236063  75.6950140  33.4080243  47.9700089  75.6599092  33.2689977
  46.8745518  75.1493502  34.1802025  19.8478162   0.7376668  30.9004855
  19.5840621   0.9280340  31.8007231  20.4421902  -0.0086418  30.9777784
  15.1592100  21.6819549  40.5781126  15.1369095  21.9798660  41.4874983
  16.0819471  21.4893150  40.4117441  44.4106627  48.7408209  46.7966700
  45.1631069  48.4676456  46.2718534  44.4634676  49.6964455  46.8118000
   1.2562446  35.4786181  57.9451370   1.0589485  35.3807282  57.0136213
   0.5643683  34.9884605  58.3893013  55.0016022  43.9837551   9.9273115
  55.6666946  44.4573927   9.4277626  54.4798470  43.5324764   9.2637193
  27.4929452  43.3800173   9.0649337  26.5640354  43.2585955   8.8684261
  27.5549507  44.2811584   9.3816793  61.8113422  65.1638269   6.6930860
  61.7428970  65.9355211   7.2552574  61.2588692  65.3675079   5.9384203
  50.0718594  48.1300545  46.7380428  50.2589893  49.0634918  46.8375683
  50.8973169  47.6959848  46.9535494  11.3674438  75.5672264   5.9076923
  12.1495867  75.0182629   5.8518106  10.7229280  75.1226139   5.3570986
  11.0906434   7.6571834  11.3329840  10.2619576   7.4313915  10.9104586
  10.8394003   7.9651147  12.2037816  49.3585634  29.3908024  49.6905756
  49.0566683  28.4832358  49.7281456  48.5546541  29.9098516  49.6670866
  53.8015842  56.1012936  64.7277069  53.9419127  56.2332678  65.6653214
  53.6805153  55.1563835  64.6343136  52.9154873  64.9225140  55.8769608
  53.6729574  64.8614454  56.4589787  52.7568340  65.8622885  55.7881403
   7.2521651  36.6381168  40.0494528   6.4689744  37.1842861  39.9820495
   7.3827380  36.5217352  40.9905386  61.0339975  31.7356133  44.9936581
  61.4896011  31.4435339  45.7831860  60.2725554  32.2150946  45.3200626
   0.9251627  66.4167738  50.9404659   0.7975039  66.2781572  51.8789339
   1.5610470  65.7488489  50.6840181  52.3611069  53.0340385  33.1484604
  52.3508739  53.6936951  32.4549294  53.2613325  52.7088308  33.1564236
  66.6531038  12.0253992  58.5187149  66.1319876  12.5377846  59.1368818
  67.5208235  12.4286366  58.5450983  35.3987455  18.9422846  50.3712034
  36.2836170  18.9450729  50.0061989  35.5182600  18.6912000  51.2871218
  77.7279282  14.2533827  51.5768385  76.9749689  13.8857555  52.0395851
  78.3471870  14.4814157  52.2702026  31.9070530  40.6214190  12.9954088
  32.6215744  41.1259604  12.6066542  31.2694240  41.2808275  13.2689893
  42.0348072  21.5307736  56.1998701  42.4439001  21.9209337  56.9723034
  41.2110233  22.0075703  56.0985231  21.7080331  14.5487440  35.0795889
  22.0143461  15.2538645  35.6498623  22.4222159  13.9114296  35.0819755
   3.6954278   6.9904602  51.6552305   3.2135561   6.1653131  51.7114782
   4.2310202   7.0095891  52.4483299  53.2490110  74.7025108  55.6196022
  53.3478355  74.5872116  54.6745253  53.4931993  75.6146574  55.7764387
  72.1249580  51.2339735  39.0938187  72.6441813  51.2108040  38.2900143
  71.7441368  52.1120453  39.1077375  74.7370625   8.6168212  48.2620621
  74.0833282   9.2604041  47.9888153  75.0560999   8.2370746  47.4433851
   7.7715480   6.8135154  41.8788910   8.5843974   7.3187464  41.8947029
   8.0397731   5.9213251  42.0986223  28.6036539  15.2062750  26.8323445
  27.9357076  14.6365273  27.2137403  29.3373132  15.1588833  27.4453115
  38.9700556  73.7490511  48.0376625  38.2924104  74.4032001  47.8670216
  39.6496677  73.9334726  47.3893213  41.4567137  33.4492946  62.8637743
  40.7744074  32.9229903  63.2805395  41.0089731  33.8968110  62.1458006
  53.0250645   8.9155710   4.6220508  52.5394297   9.2750710   3.8796568
  52.3971176   8.3452094   5.0654435  63.7123346  25.7599640   6.6443992
  64.6157694  25.6833887   6.9512838  63.2118845  25.9885955   7.4276650
  62.3837328  47.1015310  31.6348743  61.9508696  47.7433205  31.0718775
  62.9195547  46.5808296  31.0365462  55.2163649  60.5783415  51.0301638
  55.6473064  59.7949123  50.6884575  54.7463799  60.2738619  51.8064594
  70.8252764  70.2780294  30.8302069  70.7771158  70.8961344  31.5594912
  70.9195185  69.4218540  31.2477207  26.8349171  20.7948375  15.4478192
  25.9315968  21.1094880  15.4830730  26.8206358  19.9707007  15.9344673
  37.2430968  44.1636944  19.9780309  37.0556426  44.7203541  20.7338262
  36.3919806  44.0326786  19.5600986   3.1796461  54.5801497  62.2531414
   2.3559260  54.8714495  61.8621683   3.2195351  55.0350380  63.0944014
  73.3406019  50.7935190  34.9586630  73.2522011  49.8821020  34.6798539
  73.9225674  50.7564116  35.7177210  20.5874419  65.4096889  27.8452277
  20.4327226  66.2798119  27.4775577  21.0803199  65.5735826  28.6492443
  49.1237450  64.4892454  58.1603575  50.0666475  64.3388796  58.0928421
  48.9951277  65.3678608  57.8029633  10.9203947  47.6458979  61.6020679
  10.7060456  47.8295803  60.6874371  10.8329463  46.6960955  61.6824722
  50.1980877  51.8737984  47.7642775  50.7888699  52.1666813  47.0704269
  49.9783754  52.6720858  48.2445908  73.7846994  14.3154418  16.7793059
  74.4036436  14.0078080  17.4414992  72.9251289  14.2076266  17.1864319
  15.8574116  19.5145237   2.2128721  16.5908360  20.1293635   2.1957946
  16.0837710  18.8534546   1.5586698  16.1901784   4.1147307  30.6939197
  15.8408654   3.4041256  30.1560974  16.5727997   3.6747417  31.4530253
  11.3159978  55.8809328  49.7384596  10.3628218  55.8353853  49.6635485
  11.4721704  56.5501070  50.4048300  55.1639891  71.3602543  63.6895990
  56.0416031  71.5469027  64.0230560  54.5911503  71.4692831  64.4486761
  26.6317916  49.4653130  23.0940461  26.8450785  49.4373465  24.0267611
  27.2771788  48.8899088  22.6834130  76.7846251  63.8224125  62.7251339
  75.8563137  63.7959290  62.4932671  76.9464159  64.7356606  62.9618502
  14.0623403  64.6904707  46.0030794  13.7510943  63.8505125  45.6656981
  14.9828720  64.5368624  46.2158108  72.6057005   9.6827918  17.9872751
  72.1655369   8.8574129  17.7842069  72.8216219  10.0556958  17.1325517
  78.1183863  68.0267239  12.2857380  77.5445318  68.6169243  12.7741969
  78.6200142  67.5681734  12.9597759  29.0951943  10.3531110   8.8280839
  28.6675668   9.7126627   9.3965846  28.7219071  11.1942172   9.0915793
  49.0321970  60.4835701  18.5796273  49.7513199  60.9851265  18.9637291
  48.8511276  59.7956181  19.2200708  48.9423513  72.2150278  14.4950426
  49.3347454  73.0596256  14.7162020  48.4192944  72.3913670  13.7130260
  58.4506178  75.9894180  63.6007690  58.0804920  75.2606916  63.1025791
  58.7128305  75.6004333  64.4351339   0.0966621  17.2865760  64.8432922
   0.0699386  18.0675101  65.3961563   1.0226291  17.0459139  64.8133135
  70.6380844  11.3159895  56.9461870  70.5295277  10.5218482  57.4694300
  70.2205276  12.0035648  57.4649477  20.1228952   2.8811216  23.0119872
  19.8844016   3.6105132  23.5841227  19.3819809   2.2779992  23.0713201
  24.5859170  65.3356075  49.7923994  25.2062297  65.0724697  49.1125488
  23.8035822  65.6054115  49.3113708  64.0979576  37.6291513  12.5599205
  63.2249117  37.7307129  12.9389989  64.4156837  36.7968011  12.9098845
  49.0184593  56.6732931  26.1898184  48.2336903  56.1364174  26.0796571
  48.7779140  57.3147583  26.8583226  56.5353632  40.8087921  51.0016489
  55.9581137  41.4132977  51.4681149  57.1382093  40.4877234  51.6722631
  36.9591498  59.9873924  39.3229723  37.3248029  59.2077160  38.9050841
  37.6507163  60.2904415  39.9112988  39.0141535  75.3490496   5.2644384
  38.7158394  75.8369350   6.0320389  38.2963157  75.4285669   4.6362519
  55.0800562  52.6042414  65.7662153  54.4073963  52.6617289  66.4447880
  55.8602858  52.2970009  66.2278175  59.0108109  21.0535932  48.9264870
  59.0231705  20.1363897  48.6529589  59.9132299  21.3505769  48.8095665
  58.3603287  53.7594604  13.8580585  58.8866043  53.2293653  14.4566131
  57.7285051  54.2033815  14.4237101   2.8412464  12.0040023  33.2406068
   2.5351828  11.2364233  33.7237024   2.5838459  11.8349147  32.3343039
   4.0618864  38.4738684  25.9499145   3.8730243  38.6944437  25.0378251
   3.4415254  38.9980459  26.4564919  73.0992556  56.1623192  46.8608236
  72.7168036  55.6429625  46.1535501  72.5553370  55.9656429  47.6235151
  74.4838428  64.1695404  33.2223821  75.4337549  64.2410421  33.3161116
  74.1547632  65.0396967  33.4476900  59.2875719  40.7246828  38.3099794
  59.3122673  41.4370251  37.6710796  58.9818144  41.1377335  39.1175270
  16.5244484  27.4656630   4.9490911  16.6903305  27.4796724   5.8917040
  17.1709335  28.0692863   4.5831317   9.0412259  39.6002269   0.6819348
   8.3174825  39.0688920   1.0137604   8.9198154  40.4550982   1.0950812
  31.3147044   1.6056806   4.9963039  31.6958833   1.9939651   5.7838130
  30.9571910   2.3495510   4.5114616  56.1636829  19.4426966   5.4874021
  56.1847878  19.6706367   6.4168262  56.3118076  18.4972012   5.4692507
   2.1209553  61.9237566  57.4269629   2.9362151  62.4158049  57.5242996
   2.1328743  61.6174603  56.5201712  35.3035140  47.8990221   9.7175640
  34.8680925  47.4448967  10.4389596  35.1906586  47.3175764   8.9656216
  54.8211288  25.4653502   1.6071978  54.5220757  24.6808481   2.0669314
  54.0158224  25.9219575   1.3638349  53.1109762  38.6123157   6.7932844
  53.7756062  39.0857339   6.2929106  52.5237274  38.2508326   6.1294305
  57.6568317  68.6591578  18.9802408  57.0352793  69.3227816  19.2794347
  58.2044458  69.1148233  18.3409309   1.2953921   2.6987782  63.0746746
   1.6116422   1.9984564  63.6454344   1.8899277   3.4302577  63.2411003
  52.4132967   5.5024844   6.1708182  51.5743685   5.2962416   5.7586336
  52.9509783   4.7247058   6.0218483  57.1779156  61.5543556  33.2997370
  57.8186274  60.8664560  33.1194115  57.6975393  62.2820854  33.6412501
  37.9830194  44.5075989  51.9409704  37.3921728  45.0864792  52.4226618
  37.4617600  44.1947460  51.2016153   5.4887807  21.4949846   4.7676706
   5.1467192  22.2009754   4.2192146   6.0373503  21.9386053   5.4145902
  12.4384654   0.9495598  34.7256947  11.4836788   0.8816585  34.7235632
  12.6543307   1.2630089  35.6039786  66.1945629   2.8352994  52.3132801
  65.8626366   2.8355730  53.2110882  65.5632496   2.3071453  51.8246841
  51.6450834  21.1022210   4.1961852  52.3357773  20.7630324   3.6268678
  50.8358908  20.7459831   3.8294023  44.2575598  65.3888655  19.4332194
  43.8327885  65.6882906  18.6293864  43.5444498  65.3138399  20.0673151
  40.5744743  73.2032061   5.5321723  39.7636533  73.6814594   5.3587556
  41.2330580  73.8862276   5.6585902  32.8248715  14.3668628  35.7701969
  32.3251843  15.1829839  35.7481003  33.4998536  14.5171392  36.4320469
  40.8825874  19.1542161  11.2997890  40.3554201  19.1259480  12.0982432
  40.2419519  19.1323900  10.5889153  54.5486355  62.7367640  65.8430910
  54.7821808  63.6617851  65.7654667  53.5920286  62.7277184  65.8106518
  20.2499342  34.3422771  47.5830555  20.6599951  33.7750196  46.9301367
  19.8937178  35.0720978  47.0763969  52.7722454  54.2944956  49.1320372
  53.1641865  53.6430168  49.7135782  51.8396711  54.0788841  49.1247988
  48.4512663  62.5676155  66.2784243  48.2916927  62.4183416  67.2103500
  48.5450077  61.6900301  65.9078932  11.7667854  16.2147999  62.5661373
  12.2938859  16.8297219  62.0559740  12.1121538  16.2843144  63.4561491
  63.6480331  52.0536613  58.4932995  63.3532906  51.9694376  59.4000912
  63.8080025  51.1538029  58.2088852  80.8976746   1.8460642  54.0124512
  80.4478550   2.6481038  54.2782068  80.2800846   1.4078504  53.4269667
  59.7329950  28.5245442  17.5365674  58.9932108  29.0288019  17.1979249
  60.2032757  29.1385651  18.1005263  10.8996129  13.3423090  27.2809291
  11.2830758  14.0987432  27.7247715  10.2392125  13.0155087  27.8919172
  69.0966034  12.6241624  44.0098047  68.7274742  12.6942575  44.8901796
  68.3899832  12.2510481  43.4828234  62.1361780  46.6563749  36.4254808
  62.9894304  46.3489532  36.7315555  61.5412617  45.9278631  36.6031909
  16.8286097  39.5665479  12.1023726  16.6385496  38.6588120  12.3392797
  17.5310123  39.8274922  12.6979983  23.4592509  22.4667692  54.9453783
  24.0422320  22.8613472  54.2967844  23.9410472  22.5295448  55.7700968
  17.8308821  11.0721028  48.9828253  17.9314399  10.3914118  49.6482420
  18.0543184  11.8850267  49.4361067   5.6967807   8.5942042  62.5743580
   6.2498647   7.8318423  62.4036694   6.2661690   9.2025262  63.0455017
  78.5799932  12.2258627  49.8054266  78.0923557  12.9589701  50.1809168
  77.9065800  11.6534972  49.4378042  48.8923359  54.2502356  42.7547073
  49.6428823  53.9166403  42.2631550  48.9656448  55.2022171  42.6869726
  51.1988211  51.1699533  66.2988281  50.6914806  51.8027973  65.7905483
  51.4487457  51.6447115  67.0915270   8.3839554  33.5867167  34.9658251
   7.8018481  34.0416360  35.5744553   9.1429263  34.1641331  34.8834515
  81.3487720  41.7707443  55.2034140  80.9549904  42.6357508  55.3171492
  80.7471371  41.1733961  55.6477642  48.8358355  51.9700670  44.4908762
  48.6253262  52.7385426  43.9604378  48.1423140  51.9365501  45.1497650
  54.1947794  77.2443295  55.4573441  55.0502062  77.2521067  55.8867788
  54.1318512  78.1001806  55.0333261  81.3831234  46.1227131  15.0585270
  82.2028446  45.6382895  15.1566195  81.6119194  46.8716908  14.5081449
  66.6241312  21.1173892  17.6095426  65.7141781  21.3722324  17.7620924
  66.6731834  20.9570456  16.6671443  72.4803019  11.6829276  60.0023794
  73.1055641  11.5533972  59.2892838  72.8502893  11.1936259  60.7371759
  36.7945600  47.1300125  22.2640514  36.9499898  46.1867619  22.3125672
  36.8954253  47.4360466  23.1653833   4.1369700  57.4372816  27.9711199
   4.2678013  56.5494442  27.6381660   4.7164965  57.9810143  27.4375129
  54.1087914   9.3871832  39.1300273  53.5018873   9.9061096  39.6578670
  54.8712635   9.2623609  39.6950841  82.5223923  36.8266630  42.7504063
  82.3502827  36.9896579  43.6777925  81.6718864  36.9384360  42.3257113
  73.0570126  65.0155306  46.5709591  73.2922935  64.7660017  47.4646091
  73.5131502  65.8444452  46.4257765  77.7015257   2.5510529  59.4911957
  76.8670273   2.6738644  59.0386820  77.5287294   2.8268957  60.3913546
  71.6907930  68.2625771  64.6159458  71.1633730  67.7805710  65.2529144
  71.0993528  68.9327240  64.2734098  48.2808447  62.9346418   0.9338471
  48.7853670  62.4581814   0.2745454  47.4095345  62.5397873   0.9001692
   8.3620387  56.1114120  57.1141577   9.2305350  56.2273455  57.4995184
   8.5099131  55.5460262  56.3560629  73.2318115  61.7590809  11.2529063
  73.9352608  61.9763470  11.8646145  73.2609510  62.4557686  10.5971587
  59.4668198  42.4058390  61.5202951  60.3693771  42.7176380  61.5865898
  59.3945360  41.7353535  62.1995974  20.4155660  32.6837993  40.4310608
  20.6311297  33.2795882  41.1485529  19.4711626  32.5480795  40.5079603
  11.7207026  18.3858168  40.5646181  11.7033315  18.5676348  41.5042305
  12.1582735  19.1461170  40.1815939  69.1339731  45.1701784  48.6048651
  69.0690851  44.6719122  47.7901554  69.6337986  45.9515667  48.3685732
  31.6940975  36.4426565  15.5366862  32.0389891  36.7120433  14.6853864
  31.5198565  35.5065131  15.4391670  60.3369284  31.2157202  61.5872574
  60.2797842  30.7259560  60.7668352  59.7556877  30.7475996  62.1866369
  73.0138350  16.0879958  46.6331863  72.6359510  16.1246490  45.7544994
  72.4137068  15.5309546  47.1289539  39.2784071   0.5775759  43.1588793
  40.0360918   1.0732853  42.8483629  39.6547437  -0.1862398  43.5961294
  61.1279488  23.8633871  47.2076845  60.2217102  24.1714382  47.1994829
  61.5629816  24.3809223  46.5300894  37.4331808  64.7261477   8.4383285
  37.6914144  63.9218855   7.9880971  38.2449889  65.2268934   8.5186547
  17.9369318  60.8401012  59.5698786  17.7434921  60.1858997  58.8984394
  17.8265369  60.3731203  60.3981161  40.5976343  51.7558432  15.0814390
  39.9147987  51.8766356  14.4216073  41.1997080  51.1229944  14.6899772
  48.6206818   1.4250466  11.3852322  49.0497160   1.0276577  12.1430206
  47.8526688   0.8754335  11.2292922  53.5972309  59.0123749  28.1149149
  52.9613590  58.3770609  28.4439707  53.2443714  59.2882633  27.2689795
  64.1112709   3.1372061  26.9384766  65.0238800   3.0835238  27.2221947
  63.8248062   2.2257894  26.8794203  79.1590929  60.6849575  42.9447079
  79.4766235  60.6705904  42.0418262  78.4120560  61.2831497  42.9263878
  55.5860949  59.3559647  41.9561434  55.9790373  59.8479319  41.2351751
  54.9796391  58.7501431  41.5302086  30.7782698  74.1320944  42.2683382
  30.0814295  74.1682768  42.9235792  31.1174893  75.0263405  42.2298288
  39.5450473  61.1339045   5.9828669  38.8349771  60.8094263   5.4290164
  39.1049576  61.4732027   6.7622459  68.4627104  53.8994455  62.1746111
  68.0218792  54.1744137  62.9785395  69.3800688  53.7963820  62.4277163
  65.5942202  70.3847504  33.8801408  64.8393488  70.1935625  33.3235002
  66.1163855  71.0046816  33.3709669  72.4644756  41.5581083  34.9568248
  72.6124716  41.4484262  34.0175176  73.2912731  41.9063711  35.2905059
  59.8002291  46.2720346  49.5410109  58.9449167  46.1809063  49.9609709
  59.7206640  47.0604944  49.0041399  70.3353596   2.9308695  32.9935503
  69.5566463   2.5831753  32.5588775  70.7424021   2.1671933  33.4026337
  34.0793800  50.0463152   2.3836535  34.5974898  49.7141552   3.1167731
  33.2712364  49.5340204   2.4099547   5.9221262  54.4630575  62.2223854
   4.9664199  54.4364405  62.1760273   6.1823672  55.0157118  61.4854479
  73.1305313  37.0208073  41.0401821  72.5680304  37.0709562  40.2673244
  72.9597139  37.8348017  41.5139627  29.8384404  67.4721193  17.7102089
  29.4840908  68.3551693  17.6058185  29.1777849  66.9010496  17.3182333
  15.3905821  68.4588242   4.8992333  14.7318327  67.9862642   4.3903428
  15.9757340  68.8358212   4.2421931  33.7849689  21.3269377  57.4455118
  34.4064546  21.9985056  57.7265549  33.5855508  21.5505481  56.5364122
  48.4078598  62.7101326  60.3517962  48.6356688  63.0365372  61.2223101
  48.4469318  63.4829950  59.7884226  79.3612051  74.2529488  13.3254647
  78.7846327  74.4360542  14.0672648  78.9685965  73.4910536  12.8993130
  37.3538899  24.1296434   4.7294381  38.1538534  24.2927504   5.2291262
  36.6457915  24.3834281   5.3214025  18.3374882  24.8106575  60.3109694
  17.6204121  25.0330234  60.9047604  17.9155707  24.6910691  59.4601393
  53.6124182  63.7830067  53.3383179  52.7113962  63.6601830  53.0394793
  53.5250998  64.1599226  54.2138433  26.1261582  24.7748089   3.9023596
  26.0458565  24.4451499   3.0073139  25.2227783  24.8802376   4.2007247
  75.0573397  19.1480553  16.2557673  74.9163914  18.9973569  17.1904635
  74.9097586  20.0866437  16.1395621  26.2290764   9.7968054  26.5072584
  26.5268731   9.2109627  25.8113146  25.7031488   9.2394418  27.0808244
   5.5681819  72.3638153  47.8643322   4.8577565  71.8382740  48.2322073
   5.2397060  72.6466990  47.0109224  54.4938231  45.1512289  52.3570776
  54.5084810  46.0205650  52.7574158  54.2327118  45.3096676  51.4499140
  53.1013107  38.1102514  42.9772139  52.7040815  38.9568138  43.1815958
  52.9715776  37.5875258  43.7685204  55.8941317  77.2965384  59.0943289
  56.2482166  78.0486488  59.5688629  56.1127043  77.4668837  58.1781197
  14.4471228  61.2894201  53.1339836  14.1309321  60.9840775  53.9842892
  14.5033801  62.2404480  53.2267904   8.1627285  30.5638385  39.5346475
   7.4064088  31.0520768  39.2093205   8.8850540  30.8360600  38.9686322
  43.1643915  58.7781477  24.1015983  43.4348583  57.8623343  24.1676641
  42.2505474  58.7791395  24.3864155  78.9053297  62.0022106  15.1628184
  79.4438267  62.7866507  15.2672315  79.2769241  61.3726187  15.7806897
  54.9142742  51.1562490  54.1016436  54.1278601  51.3134241  54.6242142
  55.5888700  51.6939545  54.5164013   8.9311266  62.5014210  56.8850470
   8.1670821  62.3128748  57.4299479   9.0275639  61.7265511  56.3314152
  74.9261570  30.0578356  42.2766924  74.2044592  30.5669236  41.9076252
  75.7011366  30.3651905  41.8064022  49.4414711  22.0165253  44.0237570
  49.4119978  22.7831817  43.4513903  50.3556728  21.7339563  43.9987373
  17.1223629  45.3475571   3.1779447  17.5539792  44.5840693   2.7945077
  16.2232518  45.3029346   2.8526145  74.8301315  54.7110796  39.1255713
  74.1779900  55.2327824  39.5932961  74.3152905  54.0904474  38.6098313
  80.0492954   2.1277925   6.0519737  80.2979851   2.1458051   6.9761288
  80.8418179   2.3933318   5.5854595  54.9960709  34.5242929  60.1240301
  54.3257713  34.0963769  59.5912838  55.5288744  33.8045382  60.4621172
  76.8520975  63.9163971  48.8086128  76.7239046  64.8091555  48.4880209
  77.7697611  63.7226677  48.6173105  42.4108601  74.4853354  35.0762439
  43.2329988  73.9999628  35.0074148  42.0976973  74.5551205  34.1744161
  40.0281239  15.3848982   2.8524515  40.7567024  16.0039401   2.8993073
  39.9049091  15.0912452   3.7551242  72.2298336  77.0928001  44.1472816
  72.3817539  76.2807178  43.6638784  71.8123341  76.8122387  44.9616575
  74.8898554  74.6810579  51.6534662  74.1507959  74.6962357  52.2615719
  74.4860172  74.6363115  50.7867765   4.1649967  15.9307587  60.7743406
   4.4893613  16.8293297  60.7144308   3.5978463  15.8293831  60.0099516
   2.6587743  20.7005739  52.9074812   3.4713426  20.8662558  53.3855104
   2.3337832  21.5713143  52.6785183  34.3703556  69.4262505  16.6712582
  35.3243685  69.5042992  16.6709864  34.0911174  69.8993111  15.8873773
  58.8178539  55.2670717  19.1565692  58.4048700  54.5276117  19.6025229
  58.1645060  55.5584526  18.5205936  76.7639017  76.6267443  56.2114716
  75.9926796  77.1921301  56.1691380  76.9532108  76.5494919  57.1465778
  21.5314770  64.7300148  11.6749430  22.3997331  65.0705957  11.4596140
  21.5199494  64.6908855  12.6312733  13.6194015  76.0265398  15.6450045
  13.5554731  76.2922621  16.5623581  14.3538570  76.5338087  15.2993369
  41.3345385  70.9532261  58.3918238  40.5534458  71.5052319  58.3541203
  41.6264629  70.8888721  57.4825001  39.6862698  58.2548904  34.9474692
  39.3769240  57.3553562  34.8408222  38.8925600  58.7627554  35.1157880
  80.2662086  15.0431097  53.8012171  79.7651672  14.2311358  53.8779879
  80.9530163  14.9642503  54.4632626   0.8304185  56.1797190  41.9524860
   0.9975313  55.2550840  42.1351242   0.1279721  56.4200497  42.5566721
   5.9666467  35.3400016  10.9798074   6.6114604  36.0227942  10.7947659
   6.3546681  34.8306060  11.6912758  41.5818596  66.3643456  29.1281962
  41.9009209  67.2667599  29.1195679  42.3723936  65.8300638  29.0518045
  56.0087299  32.1735930  41.4673424  56.9096565  32.3838067  41.7130470
  55.7484627  31.4842701  42.0783472  52.1756601  49.6840620  64.1652298
  53.0524302  50.0652313  64.2123079  51.7458820  49.9716902  64.9707079
  39.1157079  65.2832079  55.8007193  38.8594723  66.1895990  55.9711027
  40.0546169  65.3295994  55.6203699   7.5904894  22.1731806   6.5315592
   8.3466184  21.9646764   5.9828991   7.5620067  23.1298375   6.5466088
  65.3322697  59.7600937  55.3883743  64.6271515  60.3995419  55.4890966
  65.1989746  59.1414595  56.1065388  18.9928544   3.8656306   3.5467258
  19.2735243   3.4266526   2.7437598  18.9833808   4.7956619   3.3204877
  59.2742205  65.0538874  50.9129286  59.1534996  64.1294241  51.1297894
  58.3881044  65.3814650  50.7588959  35.4633045  55.5647087  35.1795840
  36.3433194  55.2488136  35.3845620  35.0320172  54.8186350  34.7629404
  38.6607432  63.8959694  25.5382133  38.9846826  63.9448166  26.4376068
  39.0356112  63.0860090  25.1922798  59.0293264  53.8752031  51.8609381
  58.0901670  53.9971018  52.0000458  59.2653751  54.5451927  51.2193537
  76.1225796  17.7868629  52.2333193  76.1004066  18.7380731  52.3379040
  76.1536789  17.4481905  53.1280613  58.6657524  46.8933105  54.2603731
  58.6168432  47.7157450  53.7730980  57.7878761  46.7777777  54.6239901
   8.0568808  71.0606194  41.5282869   7.4527168  71.1819220  40.7958221
   8.7293184  71.7291355  41.3973427  24.9692822  34.9633384  29.9056005
  25.5727792  35.4983211  29.3900251  25.3110290  35.0098014  30.7985067
  40.0211668  76.9528723  66.7926025  40.4199886  76.1017799  66.6114569
  40.2356482  77.4857235  66.0269022   9.5649135  57.6038742  54.2318106
  10.2211440  57.0093966  53.8682318   9.6855974  58.4198093  53.7460947
  53.0581903   0.5825501  24.6176553  53.1252241   0.0487570  23.8259459
  52.8393221   1.4580107  24.2984390  46.7165422  50.7278395  50.3540897
  47.0770979  51.4237070  50.9036303  47.4844837  50.2956915  49.9802637
  25.0323653   1.9622889  48.7451982  25.5366945   2.7371466  48.9931440
  24.1895723   2.3087460  48.4521103  63.2379913  67.3111296  46.6474104
  63.4614420  67.6164961  47.5266409  63.6250830  66.4374685  46.5917110
  45.0362873  56.3085365  19.7709310  45.8664751  55.8321667  19.7804689
  44.8068953  56.3714695  18.8437581  29.6603179  36.6862345   2.9160762
  29.5561814  35.8275032   3.3259121  28.7654829  36.9809651   2.7468562
  36.4681220  35.3065205  13.3254981  36.8276691  34.8312902  12.5764227
  36.9823122  35.0003934  14.0725756  29.3714714  32.1268988  10.5847228
  29.9680328  31.3917542  10.7258177  28.7405324  31.8033457   9.9417150
  24.3081236  13.5964429  38.7488222  23.5053730  14.1087222  38.8457417
  24.6111131  13.7914741  37.8620362  43.4462452  46.0193443   9.7861242
  43.7230349  46.3784027   8.9430952  43.8910675  45.1737595   9.8439747
  14.7959256   9.7108626  67.2951365  15.5132484   9.0820259  67.2161198
  14.2836893   9.5916194  66.4953661  77.6307392   7.9961991  51.5649462
  76.9769621   8.4169567  51.0065794  78.2604885   8.6899102  51.7609215
  35.5420375  54.4854784   2.5917494  36.1095834  55.0148439   2.0314816
  36.1173773  53.8045454   2.9403862   5.7963210  47.8136206  35.4485631
   5.8445203  46.9911337  34.9613047   5.2716744  47.6038790  36.2212133
  27.7871490   1.6300622   5.9358275  28.2562637   0.8825163   6.3064218
  28.1897426   1.7640240   5.0778031  82.8210025  32.5933361  20.3159094
  82.2360176  32.2666717  19.6323049  82.2424448  33.0441380  20.9309554
  16.1893046  55.8317375  12.1061730  15.7279229  55.7917833  11.2684608
  16.8166244  55.1097250  12.0687807  23.2959723  35.9114313   8.6521441
  24.0827966  36.2673020   8.2392353  23.0208373  35.2018857   8.0715603
  63.1970406  13.7654340  41.8102312  62.3445415  13.4471440  41.5132904
  63.7294197  13.8011944  41.0155439  22.1036482  45.4441452  14.3903863
  22.5781727  45.5215502  13.5626984  21.3583827  44.8788643  14.1872394
  37.9882240   9.3251252  61.4999866  37.5169086   9.3630695  62.3322439
  38.9117312   9.2892367  61.7491436   1.8382539   9.3632156  34.0218115
   1.3610300   8.9080280  34.7155666   2.7578664   9.2932546  34.2780352
  34.9828100  26.2738729  44.9509621  35.6651783  26.1047316  45.6005716
  34.8040819  25.4173708  44.5627689  44.9991751   5.9940839  42.3113871
  45.8175325   5.9028965  41.8233204  44.5717430   6.7568696  41.9219160
  50.1185560   0.9895705   3.3404931  49.3082523   0.5346937   3.1108642
  50.0341892   1.1713644   4.2764768  15.6293809  51.4298773   8.6614680
  15.1886642  50.7401848   8.1651556  16.4280713  51.0162592   8.9889503
  46.4885902  19.9150181   9.9297160  45.5693579  19.7950494   9.6912831
  46.7082787  20.7882166   9.6049213  69.3200016  16.7907345   7.9812920
  69.4541311  16.6262960   7.0479107  70.0780249  17.3129416   8.2438457
  57.0201921  66.8000650  47.8937769  56.1971378  67.0001316  47.4479198
  57.5940132  67.5353718  47.6786423  16.6197908  11.1297703  55.6300116
  17.5171053  10.8213997  55.5036545  16.5235031  11.2040126  56.5794563
  71.2620115  71.8736410  18.7953866  72.0790386  72.2551775  19.1165245
  71.1398029  71.0870457  19.3269515  31.6907740  45.6300020  23.6203074
  32.4870944  45.6808090  24.1490078  31.0563087  45.1883030  24.1847420
  24.0070319  66.1820126  54.3393707  23.5380745  67.0029354  54.4890213
  24.5034409  66.3329506  53.5349894  43.8223505  60.3211880  52.4511957
  43.5156918  59.4944715  52.8236628  43.9720011  60.8849335  53.2101583
  16.8066645   4.0781915  67.3013067  17.1986556   4.5649558  66.5763044
  15.9799266   3.7484586  66.9491529  55.2465487  34.7302556   2.5182122
  54.7433472  34.7356439   3.3324537  56.1487675  34.5706654   2.7952781
  65.2973318  51.0229778  65.7308340  65.6867790  50.2744293  66.1827660
  65.6728029  50.9933138  64.8508501  77.7308655  66.2054348  63.9124632
  78.0247736  66.8231010  63.2428789  78.3207035  66.3546562  64.6514177
  14.2522097  32.4988127  43.3369780  14.4030392  31.6065478  43.0249786
  13.8895833  32.3871708  44.2157650  62.9511595  21.1374331  14.0318859
  62.4027729  20.3710890  13.8638997  62.7005482  21.7646122  13.3535993
  12.2410488  42.4215603  40.0802708  12.4587739  41.5676403  40.4539585
  11.8588352  42.9112768  40.8085012  41.0891294   7.1232074  52.7741957
  40.2098465   6.7555594  52.6851177  41.6513109   6.5200752  52.2879696
  64.8964262  10.4008663  11.9210827  65.2597237   9.5950240  11.5538442
  64.2706442  10.1024723  12.5810766   4.8367450   9.8473591  21.9178534
   4.1233578  10.4397714  21.6804552   5.6269801  10.2852261  21.6015744
  62.3237705  71.7245626  56.7524958  61.3978052  71.7869854  56.9868517
  62.4657679  72.4484062  56.1424828  33.8748097  53.6162949  33.0883598
  34.0595198  53.2685518  32.2158980  33.0100584  54.0186977  33.0076694
  45.6583452  48.2095385  11.1959875  46.2211943  47.9192400  10.4782414
  45.8265924  49.1491365  11.2673128  14.9641430  48.6340332  20.1994061
  15.5627131  49.3737364  20.3032327  14.2673671  48.9672852  19.6340084
  25.0254202  11.7055535  60.3712225  24.6388817  12.4873054  59.9766541
  24.6428084  10.9766197  59.8828602  22.7608514  42.2129869  35.8467817
  22.1926832  41.4455509  35.7800245  23.6461878  41.8521738  35.8939028
  16.6292381  75.4821205  45.8657789  17.2433305  75.9111786  46.4616251
  15.7885647  75.9037971  46.0437918  20.0000453  33.9582872  59.3540096
  19.2445278  33.4480143  59.6456337  20.3795052  33.4401155  58.6442614
  44.4497013  48.1701517  40.5608702  44.5574093  47.2546148  40.8186007
  44.9108505  48.6653900  41.2378597  76.5818739  10.6893253  48.0713654
  76.0060406  11.4447260  47.9529715  75.9913397   9.9360007  48.0734682
  45.8137703   9.5569086  20.6691289  45.1856899  10.2697277  20.5523682
  45.3428841   8.9055187  21.1889267  77.6154661  71.6345501  52.4224329
  77.7923441  71.3584280  53.3217096  76.9701195  71.0048723  52.1010828
  42.7383757  26.2391090  15.3437996  41.8478346  26.5419245  15.1663899
  43.0213118  25.8338428  14.5240808   9.2622626  63.7985039  59.4556236
  10.1739109  63.8766479  59.7367334   9.3054920  63.3035564  58.6374617
  77.5895405   0.5205498  33.8847852  77.4473524   0.1487489  33.0142784
  77.3518801  -0.1838047  34.4878054  40.7481003   9.1174960  66.1669064
  41.5099096   9.0011483  65.5991554  40.1556492   8.4068966  65.9213781
  36.1794162  67.5843716  40.1856756  35.5076861  68.2475853  40.3442812
  36.7865467  68.0000353  39.5734239  16.3766539  23.0031705  59.1026878
  16.2237096  22.1635008  59.5360422  16.8300807  22.7748156  58.2912159
  42.2427988  11.6535366  63.2200813  42.8859234  12.3494017  63.0844736
  41.7727327  11.9129467  64.0125370  69.7135592   6.8316609  65.8830929
  68.9387798   6.3237309  65.6423378  70.4418039   6.2180465  65.7863283
  31.8164706   5.8868974  45.2636957  31.4521694   6.4207202  44.5576143
  32.1375418   5.0982368  44.8264790  24.9190092  72.8936720  36.0058832
  24.8844886  73.7730980  36.3822412  25.8053899  72.5864029  36.1960149
  82.5788689  21.5243435   4.3259272  81.8264294  21.5758419   3.7365073
  82.4003315  22.1799922   5.0000817  43.7383604  47.4351788  13.4079182
  44.2720461  47.7859688  14.1209102  44.3662977  47.2401714  12.7122903
  54.4224834   9.1043478  47.5917244  55.3430080   8.9703059  47.3660946
  53.9421654   8.5473758  46.9790983   2.9445118  74.1769266  48.2827520
   3.7942886  73.8249874  48.5478020   2.7414709  74.8371458  48.9454079
  63.2565165  56.3876152  66.2968874  63.0049562  55.5867863  66.7569113
  62.8674412  56.2964725  65.4270887  56.5107679  28.1120467   4.6024975
  55.8032513  27.6236629   5.0233716  56.6734648  28.8509989   5.1887637
  20.3358102  29.7406650  30.0625610  21.2403059  29.8565507  30.3535700
  20.0630331  30.6121254  29.7755432   8.0965120  36.6260099  15.4650140
   7.2063285  36.3125944  15.3050900   8.1434673  36.7397666  16.4142704
  12.2549152  11.1596596  55.9739113  11.9203687  10.5189288  55.3463984
  12.8772414  11.6850543  55.4710197  41.3895048  58.2580410   0.5958711
  41.6276766  58.0194496  -0.2999963  41.6091956  57.4851249   1.1160336
  33.2357788   6.7954248  41.7927694  33.3884954   6.9212401  40.8562469
  32.7053547   7.5487751  42.0522833   9.8808670  31.5754342   0.8423338
   9.2198288  31.5018749   1.5307012  10.7070708  31.6811228   1.3139796
   6.8734711  11.5648675   3.6735651   6.3898391  11.8203819   4.4590870
   6.4542186  12.0528889   2.9648376  81.0157967  47.3222589   3.2054299
  81.5680504  46.7865181   2.6360229  80.8830547  46.7840004   3.9857453
  77.5061941  56.4693499  67.0585728  77.4101639  57.2676468  66.5392160
  78.1180382  55.9298992  66.5576982  50.8757877  46.2202024  39.2003036
  50.4313850  46.5734625  38.4296250  51.8076181  46.2931681  38.9939046
   3.7346509  50.2503824   4.1866979   3.6267203  50.7088852   3.3534160
   4.6754056  50.0850677   4.2490143  33.7536883  43.8007832  14.3842959
  34.4276190  44.4805241  14.3860340  34.2137313  43.0081034  14.1081631
   9.3668729  14.6697199  50.0116301   9.1258478  15.4682577  50.4811764
   8.5375535  14.2107272  49.8782587  77.6602507  64.7746229  58.6563540
  78.4713316  64.4310045  58.2817793  77.8989124  65.6383610  58.9928436
  73.0579710  43.3806229  65.9369135  72.8160000  44.3063354  65.9639454
  74.0058708  43.3768511  66.0699844  21.3376307  29.1048574   9.5785880
  21.9254565  28.9805746  10.3237367  21.6549993  29.9015737   9.1534382
  21.8419576   4.1272539  50.0235844  22.2709060   4.1039026  49.1681957
  20.9092259   4.2016941  49.8218393  24.4139719  77.2844887   1.3651146
  24.2685246  77.7471113   0.5398539  23.8507175  77.7347422   1.9945942
   4.1786259  54.4138384  54.7649622   3.2297271  54.5385504  54.7485065
   4.5067090  55.1415253  55.2932262  28.7684226  62.6682711  14.4888771
  29.3159103  61.8912745  14.6018660  28.9447856  62.9574108  13.5935974
  26.3352466  57.5664043  23.7261629  26.9337797  57.3968840  24.4536591
  26.2196302  58.5165977  23.7275648  24.9958563   7.1497416  49.9426746
  25.1452255   6.4898068  50.6197309  24.1446066   7.5288922  50.1614237
  16.8205643  18.4523499  52.6937294  16.7578673  17.6630664  53.2316256
  15.9847438  18.8996089  52.8263760  77.7130032   5.2287310  32.6397777
  78.3186722   4.7472578  33.2033229  77.7816296   6.1366969  32.9349399
  33.3256841  40.6900406  26.9324374  33.5611057  40.5943346  27.8552866
  32.8238606  41.5043545  26.8964767  68.8911152  33.1550097  47.1450138
  68.5275841  33.5927057  47.9147530  69.4156456  33.8284731  46.7119408
  62.2483778   0.4192842  61.8199539  61.9550276  -0.1590192  62.5240421
  63.1470585   0.6483328  62.0568943  65.5630016  59.8316288  47.4952030
  65.2806139  58.9196301  47.5640821  66.4850855  59.7785234  47.2438622
  57.2134066  41.8394804   9.9236262  56.6322851  41.1001682   9.7448868
  56.6303492  42.5335312  10.2311563  59.3551683  54.5166731  35.9460998
  60.0417233  54.3472195  36.5912032  59.8047352  54.4774485  35.1019549
  25.4249477  38.7287927   3.6022559  25.3906417  37.9202414   4.1134298
  24.6969199  39.2536283   3.9350551  78.1612253  70.7901192  37.9623508
  78.8178587  71.1006403  38.5857630  77.3384809  70.8102942  38.4511399
  31.3658929  58.2430077  17.8723752  31.6338110  59.0344810  17.4054444
  30.9328008  57.7076864  17.2074735  24.7581387  26.6906714  64.3399382
  25.2145195  27.4345303  63.9467144  24.9591231  26.7527866  65.2737379
  69.5798540  63.9545965  59.7260332  69.3827820  64.7559118  60.2111006
  69.1993761  63.2541323  60.2559614   0.7133789  72.5051546  58.8392019
   0.0753285  72.5798988  58.1296015   0.4395071  73.1634235  59.4778776
  57.0242023  61.2226295  61.8555212  57.4450684  60.3760338  62.0051098
  56.9853067  61.3057423  60.9027290  26.5599585  56.1919498  18.6706948
  26.0952163  56.5161848  19.4421363  26.2422919  55.2959728  18.5587096
  59.1873503  57.8868818  47.7964258  59.5380449  58.3343363  47.0263433
  58.3126831  57.6029205  47.5308180   7.7491462  58.1315947   9.7500753
   8.0389106  58.5909033  10.5383039   7.9480529  58.7352467   9.0343440
  20.3246188  17.6338744  67.1922731  20.1905704  18.5780191  67.1094894
  19.9879587  17.2714031  66.3728142  74.3286991  68.7865591  64.4095659
  74.4585848  69.2587233  65.2320194  73.3795214  68.6850119  64.3390083
  57.7338028  74.4527721   7.8323656  57.0369768  74.6864080   7.2191119
  58.1481361  73.6831427   7.4421984  30.6592512  30.1024485  63.2135439
  31.4687061  29.6712732  63.4875917  30.9363532  30.9731841  62.9284716
   1.5008067  41.4766169  54.6528435   0.5702478  41.6591549  54.7831249
   1.5216206  40.5988884  54.2715454  37.7743506  10.2328205  27.2156835
  37.4297023  10.0149393  28.0816936  36.9972110  10.3210700  26.6638732
  36.7120624   3.8985372   5.9516871  36.5752745   4.7529715   5.5424654
  37.2916627   3.4338930   5.3480291  54.0544844  56.0703659  23.2566118
  54.7665262  56.5891409  23.6309075  54.4354868  55.6689930  22.4756074
  70.8684921  76.3019848  46.2729025  71.2781429  75.4472733  46.4066267
  70.1906347  76.1425781  45.6161451   4.3804824  65.9331465  52.0759487
   4.5842490  66.5906239  51.4107895   4.5435545  66.3762712  52.9085827
  62.2908831  15.6067145  59.5385265  61.7817068  15.7088125  58.7344408
  62.4063158  14.6609581  59.6304655  51.7987442  50.7572317  38.2831955
  51.7313576  50.5157757  37.3594022  51.5734243  49.9566555  38.7570524
  16.5006149  38.4986877  43.9571190  17.2785974  38.5788488  44.5089769
  16.2485695  37.5782037  44.0307093  44.7883987  58.8159418  45.7589006
  45.0889635  57.9441786  46.0156488  43.8336039  58.7617064  45.7995462
  17.8569603   5.3613204  44.1315413  16.9494081   5.5870968  43.9275694
  17.8052580   4.4870681  44.5178604  24.6452951  11.0968447  46.9505644
  24.0425158  11.7806399  47.2426462  24.2708445  10.7830858  46.1274195
  82.3020649  74.2314339  20.0542855  81.7358017  73.4597349  20.0465155
  82.1300602  74.6631575  19.2174697  30.4900742  60.2610588   4.9072349
  30.7641745  59.4494438   5.3342968  29.5387244  60.1841259   4.8347953
   7.3529559   6.4888066  45.7686901   6.6888744   6.8404931  45.1757765
   7.1524364   5.5545902  45.8258152  52.2826052  71.5085888  41.5749645
  52.7897453  71.4520216  40.7651234  51.6803598  72.2383165  41.4299488
  10.4666042  51.2805939  16.5740740   9.8251140  50.5750895  16.6576505
  11.2800992  50.9058809  16.9117796  25.1494288  65.5783081  40.7885695
  25.8123875  65.1499796  40.2470446  24.6987677  66.1734581  40.1894617
  33.7548161  39.2559171  64.0207624  33.8452101  39.3440890  64.9695969
  34.4179964  38.6105633  63.7759304  80.6379890  54.6501064  42.7638245
  80.1930618  54.6129084  43.6105156  81.4285374  54.1242838  42.8853798
  81.2422180  18.7531471  15.1462615  81.1047363  18.9478064  16.0733211
  80.3678799  18.5548031  14.8109531   3.5624623  73.3854914  44.0818739
   3.8184169  74.2543173  44.3914890   3.5201341  72.8514099  44.8750925
  44.8495579  62.5466681  28.7211442  45.5689526  62.5750923  28.0903554
  44.1489458  62.0809078  28.2645845  72.6543570  64.5780754  39.7234893
  73.0595398  64.9334621  38.9324379  71.7628336  64.9263668  39.7131371
  14.3695438  19.5895565   4.7064283  14.6640849  18.6810553   4.6423623
  14.5741248  19.9685156   3.8515785  65.8276701  75.7517195  37.2982931
  65.2099895  76.3590193  37.7055955  65.6789923  75.8534861  36.3582039
  30.3052878  14.8741412  38.1747079  29.6719146  14.5448148  37.5370455
  30.5316758  15.7485247  37.8577971  76.6840363   3.4099606  41.8892527
  77.5136948   3.3043548  42.3548031  76.0243559   3.4506446  42.5816441
  79.5410728  59.1380310  21.7370296  78.8544989  59.2500162  22.3945308
  79.7528076  58.2050705  21.7683434  72.0039463  72.0775604  34.5416903
  71.0733128  71.9585228  34.3519998  72.2512054  71.2923002  35.0300121
   9.9261826  67.2432613   7.6741016   9.4081533  66.9568777   8.4263414
   9.9382007  68.1980371   7.7410930  42.1013260   6.1581093  11.4103055
  42.9691696   5.7864970  11.2522352  42.0472383   6.2438542  12.3621213
   1.0865122  56.1286592  22.9810619   1.2130158  56.5960550  22.1553707
   0.5108314  56.6972971  23.4924078  18.8150036  11.2817025  66.8660879
  19.3714225  11.9635975  67.2424507  17.9221809  11.5986037  67.0027351
  69.7886658  73.1633329  53.8749552  70.5215311  72.9300308  54.4447899
  69.6671963  72.3966122  53.3149433  63.2757568  62.0682526  55.5824137
  62.3631239  62.1360636  55.8630180  63.2305241  62.0323706  54.6269560
  70.6636953  64.1733599  44.5385265  70.8985662  64.4512177  43.6531687
  71.3525963  64.5374346  45.0944901  13.1588030   7.0331568  21.1395049
  14.1026235   6.9497406  21.2754273  12.7879226   7.0229763  22.0218730
   9.6378720  66.5407228  30.3631902   8.6912638  66.4849520  30.2325988
   9.8656619  65.7279968  30.8146596  50.9540033  14.7966361  30.3945708
  50.4026794  15.5296731  30.6683064  51.1687946  14.9864638  29.4813013
  37.2013378   1.0585111  29.5347285  37.7534008   0.8525258  30.2890682
  37.3085737   0.3099269  28.9479113   2.2020032  34.0183568   0.0688947
   2.3725054  34.9368310  -0.1398296   1.7410401  34.0448642   0.9073709
  49.9950075  13.0969405  47.3277473  50.5589151  12.3377872  47.1796608
  50.4196692  13.8079894  46.8478441  58.3027649   0.2051907  36.1457300
  58.8104296  -0.1621024  35.4221272  58.3759212   1.1528916  36.0328484
   0.0033247   4.2346293  29.6612000   0.8236332   3.9699775  30.0774765
  -0.1371812   3.5837677  28.9735460   1.2142707   7.7093989  41.9549274
   0.9423254   6.9940042  42.5298071   0.3989587   8.1551743  41.7251825
  33.6041355   2.9172876  27.6582575  32.7552390   3.2538369  27.9452038
  34.1475153   3.6979923  27.5511575  44.9504948  20.6659698  33.2012200
  45.0676298  20.4412961  32.2781634  45.8299589  20.8875942  33.5072494
  37.6272726   7.2107494  28.4780622  37.2944522   7.5060624  27.6305628
  36.8950295   7.3394126  29.0809679  72.9431534  15.6326807  14.4393241
  73.6689091  16.1534154  14.0953112  73.2607460  15.3058779  15.2810872
  62.0785952  58.7582636  22.2301650  61.7975664  57.9804373  21.7482519
  62.9632807  58.5481262  22.5291657  34.4357347  13.5116184  60.4677296
  35.1951694  13.0689240  60.8465624  34.8053002  14.1003346  59.8096514
  52.0785475  53.9518404  62.3482513  52.7874279  53.8370419  62.9811335
  51.6146326  54.7338104  62.6474667  59.9386787  68.6469507  10.0431228
  60.1730680  68.8674164   9.1416305  60.0102329  67.6932573  10.0828099
   0.7664749  60.8168459  32.4985003   0.5444756  61.6492414  32.9157162
   1.2143943  61.0660696  31.6901135  39.6776199  56.6949844  47.3929024
  40.2136135  56.0659552  47.8758717  38.9987731  56.1626005  46.9782114
  80.0498104  73.3288145  27.6275206  79.5284557  73.5792923  28.3901978
  79.5254564  72.6591444  27.1884084  30.0155306   3.0928043  20.2954054
  29.7056961   2.8485525  21.1675143  30.7058883   3.7356558  20.4578328
  38.0409718  74.9719477  13.4803987  37.5066185  75.6630278  13.0891109
  38.2375169  74.3807316  12.7537167  67.9093027  63.4180355  52.1861601
  67.4214268  63.1115818  52.9505539  67.5388336  64.2797422  51.9952488
  38.7203884  12.0911968  48.7694263  38.7785435  11.7599487  47.8732538
  38.9143395  11.3315821  49.3186092   4.4779378  49.8780584  25.1550865
   5.2534777  49.8794746  25.7161283   4.6099135  50.6178188  24.5621514
  35.8151340  12.7701759  51.0616922  35.7940722  13.5728335  51.5827751
  35.4534626  13.0259299  50.2131557  25.9537053  47.4735022  11.4789534
  26.1029387  46.6526318  11.0097718  26.3768387  48.1394625  10.9370244
  68.3740044  71.0068941  29.9740648  69.1142082  70.4962111  30.3019834
  68.7712765  71.6665697  29.4055247  16.0392904  25.5937409  24.4067812
  16.2964320  25.8751512  25.2848005  16.4848340  24.7555232  24.2838407
  35.1647043  70.1405144  54.7501564  34.5160747  70.5008364  54.1454411
  35.6616974  69.5146990  54.2232943  29.0585971   8.0322725  61.3197994
  29.7525930   8.6637330  61.5091705  28.3109760   8.3365786  61.8342829
  15.0327587   8.5009944  32.1012688  14.6911788   7.6164240  32.2320008
  15.7034600   8.4013295  31.4256525  33.1502604  35.1314282   5.2094418
  33.9973617  34.8342824   5.5416375  33.3137369  36.0220361   4.8990771
  43.3998060   0.5152763  14.6389186  42.7614689   1.0026941  15.1596701
  43.8624001  -0.0295280  15.2756488  59.3884373   1.6880345  38.6941195
  59.3165302   2.5491002  39.1059780  58.5421658   1.5554360  38.2669473
  12.9123461  21.0487700  62.6555586  12.3272038  21.4320898  62.0021772
  13.7365246  21.5232277  62.5466919  36.8661618  25.2660441  34.0949893
  36.6548991  25.2407026  33.1617379  37.2692537  24.4161916  34.2724752
  34.1462231  75.2882910   7.1479672  33.2581687  75.5695963   6.9278342
  34.0227294  74.5567703   7.7528262  31.1143279  70.7482624  38.6637139
  31.4073157  70.1375818  39.3400693  31.0890365  70.2245760  37.8628731
  29.3683290  68.2541943  41.4663124  30.0175047  68.6966944  42.0131159
  29.7057891  67.3639965  41.3667965  75.0932741  51.7407560   8.5961944
  75.9321499  51.3449383   8.8325119  74.9815130  52.4565840   9.2217624
  72.9759455  70.6337976  60.9819889  72.0229435  70.5481005  61.0080338
  73.2487154  70.0584841  60.2672577   3.6531395  72.2139168  38.2223988
   3.0172896  71.7725611  37.6592541   3.1198534  72.6810455  38.8655400
  36.8448639  10.4323626  52.2579050  36.2114906   9.7260350  52.3850727
  36.3113689  11.1951995  52.0349789   6.3170284   7.0130396  10.5606771
   5.7618797   6.2936366  10.2598441   5.7352829   7.7729511  10.5790699
  13.4509122  22.9712462  30.4285502  13.7979567  23.8577390  30.5281520
  14.1572106  22.4018383  30.7337523  17.6179731  76.3494205   4.2941171
  17.7291822  77.0663023   3.6696619  17.7769983  75.5575228   3.7804651
  51.8556023   5.9035265  54.8451424  51.4582682   6.0575992  55.7022429
  52.2875023   5.0535953  54.9306631   9.4696546  70.6666088  50.6475973
   9.3243092  71.5642071  50.9466219   9.2723727  70.6911755  49.7112703
  76.8770599  55.3398752  27.7036190  77.6262045  54.7443485  27.6845789
  76.5211439  55.2488613  28.5875154   4.8355898  60.1484346  41.8289280
   5.1554096  59.4452190  41.2637424   5.5760610  60.7502460  41.9047832
  20.2391315  12.5383329  40.0944614  19.2955995  12.4187505  39.9864054
  20.6154346  11.6865277  39.8729777  42.8791761   7.1726984  15.1260591
  42.7677059   7.5219172  16.0102832  42.6318979   7.8960079  14.5499420
   7.8730172  57.4908018  61.8040371   8.3196694  58.3300447  61.9154119
   8.3328223  56.8944931  62.3949862  48.0255318  24.4460177  66.7220831
  48.1158924  23.5031939  66.8604708  47.0920372  24.6178675  66.8457508
  65.4280663   8.4280002  47.6043272  64.5506525   8.7593931  47.7955294
  65.8074331   9.0803689  47.0154905  55.0389814  20.6859159  43.7381840
  55.3574848  20.9113836  44.6122265  55.1253843  19.7338426  43.6899948
  23.7829733  74.3890953   5.9633487  24.4061255  75.1069355   6.0756570
  23.1572413  74.7141790   5.3160399  32.9270911  16.6171372  59.4204950
  32.0122671  16.7598486  59.6633148  32.9455447  15.7269931  59.0690231
  80.8848190  13.4220684  57.2305918  81.5955257  13.1893253  56.6331387
  81.3237095  13.8270867  57.9786348  76.9906282  42.7272320   1.8767978
  77.0317364  43.4734964   2.4748191  77.8230143  42.2721004   2.0041730
  24.8915052  20.0478005  60.0041533  25.1468158  19.9880445  60.9247398
  24.3154454  19.2959213  59.8660707  47.0816994  18.1895697  28.2291865
  47.1717310  17.2503471  28.0679798  46.7678308  18.2487047  29.1315269
  11.1935151  19.5676279  37.8227377  11.7057407  19.6068943  37.0150781
  11.7997801  19.2146122  38.4739327  19.3506253  17.6962709  40.3111410
  19.4951093  16.7500460  40.3070450  20.0667977  18.0456197  40.8415031
  58.5625696   2.6682916  34.4668293  59.4944334   2.4515148  34.4963098
  58.4069443   3.1660527  35.2694798  30.4319191   9.4882166  46.5638971
  29.7998834   9.2837036  47.2530556  31.2026954   9.8077834  47.0329523
  44.9864006  18.9085436  35.2243114  45.0305843  19.6518230  34.6228004
  45.7791328  18.4044397  35.0407696  46.6425419  70.9546804  12.4351311
  46.2559986  70.2171612  11.9630265  45.9164476  71.3246822  12.9372382
  38.5390949  72.0491648  16.3033664  39.0831923  71.7865849  17.0458221
  38.9519620  71.6350460  15.5455565  26.8807364  60.0237703  37.5487709
  26.8532228  60.6614876  38.2620668  26.7556334  60.5455160  36.7560768
  64.1267061  50.8755922  44.1477251  63.4933043  50.3496885  44.6360540
  64.2252874  51.6741800  44.6661520  18.3506298  65.0654554  39.3450284
  19.1360962  65.1645374  38.8070154  18.0108094  64.2004824  39.1157389
  55.6769848  55.0277138  38.8136339  55.9653854  55.0711489  37.9019499
  55.2675867  54.1662741  38.8945508   0.2516045  25.5065107   8.6157519
   0.0861897  25.9369254   9.4545674  -0.2656207  24.7019601   8.6532718
  31.1750650  61.3387680  32.2378898  30.6408787  62.1327305  32.2156596
  31.5764952  61.3444233  33.1068277  75.8239985  75.1072598   8.6355519
  75.0059414  75.0565004   9.1299629  75.8852243  76.0240555   8.3672780
  26.7481637   3.9972010  48.8602686  26.5228724   4.9083996  48.6726713
  27.5930047   4.0465620  49.3075275  22.8975892  42.9257870  32.4624062
  22.0902014  43.0285025  32.9661965  23.1141067  41.9969463  32.5437021
  42.5140095   8.2905340  48.3951712  42.1150589   8.9684737  47.8497648
  41.7753887   7.8777277  48.8426781  49.9066257  23.8025069  21.1327004
  50.3768969  23.7031937  20.3049231  49.1114378  24.2820168  20.9003758
  74.2107534  50.2929926  62.7416039  73.8689232  50.5164480  63.6073112
  73.5626793  50.6433105  62.1304560  79.0005493   7.2989887  55.6768656
  78.9056635   8.2504326  55.7213926  78.2115746   7.0005143  55.2244711
  35.3966570  66.0222054   1.8336329  35.2889061  65.7353926   0.9267918
  35.5893469  66.9574928   1.7677422  24.7620583  26.4130664  38.3372259
  25.1971602  26.9266057  39.0178084  24.0958118  27.0015693  37.9822421
  22.2140956  69.7176123  45.8268595  21.4086342  69.8168755  46.3344145
  22.0199013  69.0172482  45.2039528  76.7499304  67.7667379  22.9534674
  76.4327478  68.6176634  23.2560468  76.5365362  67.1643686  23.6660981
  20.1645517  19.8183346  38.4430218  20.0702977  20.1096439  37.5361133
  20.2621698  18.8681817  38.3804679  37.8906226  34.0671277  65.0267410
  37.0041180  33.9466190  65.3670597  38.3012795  34.6776509  65.6389952
  29.2890716  65.3609228  65.9472084  29.8913002  64.6169138  65.9484577
  29.8483682  66.1215162  65.7893610  25.1020193  17.5741053  43.5965872
  24.8353434  18.2321596  44.2385244  25.3935933  16.8299890  44.1233778
   7.8445846  44.0146399  54.3299055   7.6216984  44.8489761  54.7427416
   7.1192062  43.8432455  53.7293339  78.4738922  13.2058012  33.1000137
  78.7423801  13.7381935  32.3512125  78.6751699  13.7472093  33.8632941
   1.7951559  11.9611168  42.5081921   1.7704326  12.8364611  42.8947067
   1.0700383  11.9546175  41.8833780  63.4273434  22.9998565  25.0566173
  63.2561731  23.8091159  24.5749211  63.5192156  22.3316956  24.3773890
  16.3680124  58.9513874  35.2346945  15.9990942  58.3262014  34.6107817
  15.6163335  59.2519236  35.7454705  60.0236940   4.7833359  18.0396295
  60.6075716   5.3131568  17.4968493  60.5567455   4.0332848  18.3032787
  12.6218331  78.1148434  64.6985626  12.3246098  77.4434996  64.0844059
  12.6989305  77.6566410  65.5354214  67.9694271  24.0061808   3.2459596
  68.8932276  23.8286018   3.0690700  67.6954126  24.5824575   2.5324789
  58.2189846  68.8393688  65.4556179  57.8655720  68.7693691  66.3424253
  59.1451168  68.6160374  65.5485487  37.4301553  10.4479408  58.9099073
  36.9197249  11.1753988  59.2655706  37.7059007   9.9500066  59.6794891
  67.9950476  21.2573528  27.6340103  67.8745890  21.6758013  26.7815900
  68.3342218  21.9534373  28.1967354  72.3933172  31.2069368  45.3706455
  72.6486540  31.1947918  46.2930822  72.9068184  31.9190884  44.9893427
  50.4606056  75.1418591  38.6248517  49.6826839  75.6994152  38.6108494
  51.1672878  75.7089043  38.3161592  13.2255292  11.6039836  49.2759943
  12.6418650  12.3392439  49.0890169  13.1217194  11.4484954  50.2147579
  74.8526096  65.9369707  64.9200201  75.0998306  66.8426514  64.7333002
  74.3301153  65.6705046  64.1635609  16.4865136   7.6649767  67.0177841
  17.4029887   7.9336542  67.0819473  16.4718759   6.7765832  67.3738337
  41.4505100   9.7999036  51.9696903  42.3971891   9.7939312  51.8282986
  41.2756872   8.9934206  52.4547195  22.8236628  50.7218122   4.6590504
  23.3039999  51.2404633   4.0136728  21.9663668  50.5759907   4.2590359
  55.8643055   0.4353748  46.3543129  55.1357841   0.0941872  46.8730402
  55.4610682   1.0735210  45.7657576  44.6434259  38.7794805  61.7878103
  45.2900696  38.1561804  61.4567852  44.7782183  39.5670533  61.2607527
  51.1675596  22.7847815  53.7315989  50.2668571  22.4680614  53.7998676
  51.1101055  23.7170982  53.9406872  11.2836087  31.0807228  46.9905090
  11.2885952  30.4771399  46.2476110  11.6395020  30.5692053  47.7170897
  68.0293322  12.2087705  63.3933544  68.6232185  11.4665556  63.5058117
  68.2699585  12.5816965  62.5452662  14.4903839  20.4601026  31.0056973
  14.4645202  19.7450781  31.6415453  13.8094592  20.2400398  30.3699732
  60.6200933  66.9498253  28.2907391  60.8798170  67.3748922  27.4733710
  59.7596455  66.5749121  28.1028414  28.2450533  70.2411222  59.1030264
  28.7083054  69.8189878  59.8265076  27.3629689  69.8707867  59.1348600
  27.5434327  22.8165460  51.9950199  27.7555633  22.9731631  51.0748529
  26.6498446  22.4737644  51.9798279  10.7900786   6.5657097  40.6767559
  10.5715930   6.3034910  39.7824740  10.9003258   5.7400364  41.1482859
  41.7922735   8.8917261  39.1587186  41.3673735   9.6650755  38.7877417
  41.0874510   8.2500094  39.2462325  61.8889189   4.0036172  63.6589193
  61.9707108   3.1267101  64.0338564  62.7875710   4.3303949  63.6156940
  40.1999712  67.6831007  15.3722143  40.5198574  68.1901073  16.1184382
  39.8146009  66.8988800  15.7630074  64.6273184  74.7603083  45.8860111
  63.9024734  74.1356850  45.9120941  65.3775215  74.2708588  46.2234545
  49.6895313  58.0198765   6.2271380  48.8255739  58.1501770   6.6180736
  50.3038168  58.1933260   6.9404417   2.0626968  63.6233234   6.1056364
   2.6722604  64.2470646   5.7111651   1.7400016  63.1049395   5.3684944
  21.8075967  19.0052617  41.7577648  21.4299107  19.8696113  41.5950203
  22.1141601  18.7123930  40.8995819   3.1520876  58.6907768  36.7376304
   2.7291003  57.8325319  36.7107177   2.5267816  59.2516947  37.1965384
  57.8688049  19.2246866  42.0102978  57.0223236  18.7835300  42.0815706
  57.7773046  19.7968447  41.2483931  20.3192329  25.1321650  50.7241344
  19.6559525  24.8526573  51.3551426  19.8172128  25.4413700  49.9700785
  35.5019069   3.0510366  64.0719652  35.5613685   3.3617222  64.9753904
  36.3999295   2.8137684  63.8406897  13.3929884   2.2229968  50.3925562
  13.9613163   2.9625353  50.6077766  13.5530663   2.0605071  49.4629335
  47.2427607  70.6574154  25.9748387  47.0313835  71.5899897  26.0178661
  47.8160334  70.5068398  26.7264509  11.6160858  35.6555462  26.1620760
  10.6825054  35.8052373  26.3112497  12.0418298  36.4441729  26.4982915
  51.5082502   8.6095256  19.9135101  50.5841017   8.6548102  19.6683037
  51.9736671   8.9774060  19.1623223  13.4469628  67.7336359  60.1305342
  12.8057730  67.7874470  60.8392048  12.9478991  67.4114895  59.3799448
   7.6507246   3.7383422   6.6012967   7.0847696   3.1610197   6.0888267
   7.9678369   3.1885523   7.3178178  11.3325775  24.9702287  15.9835351
  12.2273183  25.1947451  16.2389994  11.2296665  25.3513908  15.1115513
  29.2615128  13.7903464  47.0971155  28.5606408  13.1621385  47.2713661
  29.7072864  13.8912427  47.9381514  14.6219599   7.2820956  25.8378005
  13.8034201   7.0557857  25.3962016  14.7042048   6.6334790  26.5369153
  18.4460390  16.5485311  58.4166622  18.7263322  15.8346689  57.8438902
  18.0498970  17.1885800  57.8253555   4.1255432   9.8270094  13.3311892
   4.8834151  10.4076886  13.2628226   4.0180758   9.4687206  12.4501038
  24.8934007  12.8579497  43.8781357  25.0648236  13.6190307  44.4327545
  25.1773310  13.1289613  43.0051136  48.5681868  43.7088823  65.3639793
  48.7890768  44.6124363  65.5898809  47.7068710  43.5674810  65.7568836
  77.4576378  32.7780914   9.1985625  77.1261024  32.0461798   9.7187769
  78.2736015  32.4519420   8.8190043  12.2920454  75.5273724  56.2706041
  11.9135904  74.6673012  56.4530325  13.2192361  75.3519011  56.1101055
  70.1353455  14.8960185  31.1328173  69.9203253  14.7168124  32.0481777
  70.4694414  15.7930136  31.1364484  65.8889914   4.2346257  33.1725883
  66.0259151   4.0191543  32.2500610  64.9538946   4.0891275  33.3162975
  23.1001282  65.4465771  66.9737101  22.7314258  65.1309443  66.1486864
  23.5335302  64.6809530  67.3508215  10.6122768  75.4928064  51.9831610
  10.3695107  74.5672798  52.0095873  11.0284078  75.6555367  52.8296757
  29.3525100  16.0781884  65.9896612  29.3993640  17.0010805  66.2392759
  28.4157515  15.8822691  65.9714079   0.2486955  74.7946930  46.1510324
  -0.1291931  75.1577234  46.9520617   1.1870147  74.7401810  46.3321877
  30.2556181   5.4401183  29.2730212  30.9768200   5.2617097  28.6694717
  29.5383477   5.7309204  28.7098241  17.6295424  24.6970034  35.8803582
  17.6374304  25.6357765  35.6936145  18.2859957  24.3295431  35.2885199
  44.3051624  20.5344343  54.6991968  43.7256336  20.9425497  55.3424788
  43.7336493  20.3259802  53.9601755  47.6524162   7.2778672  52.3824167
  47.9691124   6.3824826  52.2631550  48.3048153   7.6891482  52.9493904
   4.7280839  38.5475326  65.3642225   4.0859234  37.9936171  64.9203300
   5.5279869  38.4477258  64.8480606  34.1151500   4.5499265  31.4178610
  33.6432433   4.4705659  32.2468591  34.8407507   3.9304286  31.4950490
  60.4793596  55.2027035  43.9928246  59.8204708  55.8964968  44.0201330
  60.4454279  54.8754168  43.0939531  59.8921347   4.0085754  40.3430986
  60.6796598   4.2906290  39.8778272  60.1785755   3.8898003  41.2486792
   2.2203854  47.5809050  53.0199814   2.3008868  47.5151062  53.9715195
   3.0757442  47.8965521  52.7285051  47.5779915   8.2275265  38.2519245
  46.7230940   8.2215983  37.8214097  47.8595495   9.1415429  38.2127643
  25.4723477  38.0996823  22.0830393  24.9863744  37.3418546  21.7578292
  25.6439948  37.8974557  23.0027533  75.5546141   5.8172393   9.0285194
  76.0670137   6.4218563   8.4917569  75.3375626   5.0967634   8.4368819
  44.8284817  23.5210729  21.2295246  44.8570204  22.6444435  20.8462024
  45.6682444  23.9139986  20.9915423  46.2916327  22.2190952  55.4172659
  45.6942177  21.4712167  55.4146576  46.4945507  22.3603272  56.3419867
  71.1789751  16.7357337  37.3897076  70.7770205  16.0153663  36.9041824
  70.8899403  16.6064370  38.2930207  37.3574591  27.3968863  65.4598761
  37.8468537  28.2010698  65.6331301  37.8837991  26.7051339  65.8607197
  25.1594138   0.5671915  51.2460423  24.8894477  -0.3213780  51.0141087
  25.1935124   1.0329397  50.4104900  16.2481487  59.9307013  45.5444765
  15.4728520  59.4622898  45.8538961  16.4309919  60.5714512  46.2316751
  19.3839097  12.4248874  12.0927560  19.4070780  13.3816218  12.1116126
  20.2802753  12.1594977  12.2984910  23.6695957  54.4943142  34.8713279
  22.7137804  54.5455551  34.8758745  23.8849020  54.1117859  34.0207124
  36.6987109  24.6728182  31.4823174  37.0919895  23.8339972  31.7230320
  37.4146509  25.1673198  31.0834074  20.0900888  51.8978405  65.3426600
  20.6632257  51.9300318  64.5766878  19.3246675  52.4145699  65.0909567
  63.3280325  75.3142071  25.9271646  62.7330589  75.4947805  25.1994085
  64.1943789  75.2688599  25.5226612  66.5664721  59.8388577  28.2462406
  65.9940338  60.5970860  28.3630013  66.0583448  59.2365551  27.7028489
  64.7060442   1.8587352  65.4964066  63.9247036   1.7868663  64.9481535
  64.5387936   1.2675682  66.2304211  16.3306308  42.7092648   2.2482426
  15.5171442  42.4799967   1.7989028  16.3114500  42.1952152   3.0554709
  51.3713169  10.7518804  47.1745300  51.1390114   9.9802309  46.6579771
  51.1074448  10.5305719  48.0676270  35.5709100   7.5389820  46.2685633
  34.6928477   7.4301332  46.6337919  36.0188961   8.1137693  46.8891764
  24.3063521   7.7988636  40.6961536  25.2563667   7.9154474  40.6856489
  24.1124177   7.4925071  41.5820217  81.8064022  71.0409737   2.1098030
  82.0468044  70.4601574   2.8316706  82.0102692  70.5391836   1.3205764
  41.0765457  21.3486242  38.9328384  40.7851124  20.6007338  39.4543338
  40.4694986  21.3760185  38.1932592  62.4103546  43.3419418  14.9243820
  62.2797489  44.2901564  14.9160624  62.1241760  43.0683899  15.7958746
  12.5017953   5.6021267  52.2071648  13.1892550   4.9576139  52.3751926
  12.9170346   6.4465141  52.3827124  38.7606764  11.2160265  46.0959530
  38.5423613  10.6736970  45.3380299  38.7487459  12.1124268  45.7604599
  34.6173978  15.2333009  52.3364687  35.3213692  15.8742690  52.2373915
  33.9680719  15.6735492  52.8849077  45.5736017  57.2141647  49.5238543
  45.4831076  56.7061663  48.7176418  45.0513363  58.0015707  49.3706989
  12.5827277   3.6503881  29.9988580  12.9404652   3.1807187  29.2454219
  11.6385746   3.5014153  29.9477196  77.3985100  37.4789977  14.2691648
  77.8350782  38.3236480  14.1587007  78.1128168  36.8426585  14.3019271
  50.9468842  37.0318198  14.1065574  50.6654072  36.4797831  14.8361146
  51.3511992  36.4234543  13.4879673  48.5578394  65.4598665   1.9148189
  48.5793114  64.5270777   1.7011112  48.3767509  65.8926344   1.0804613
  15.4243279  23.6647201  10.9219027  16.1319387  24.1759825  11.3144970
  15.8303571  22.8278875  10.6958926  19.2116702   6.4129674  26.0021830
  18.6321497   7.0852435  25.6438088  19.1505384   6.5249556  26.9508410
  21.6474247  53.9166784  14.6381760  21.3360524  53.3200312  13.9575219
  22.5646067  54.0762329  14.4155657  34.9738145  59.0119028  36.7933249
  34.0727711  59.0322685  37.1157169  35.2096534  58.0842304  36.7999458
  37.6748896  29.1846490  32.3964429  37.5328636  29.5360708  33.2753968
  38.6223030  29.2337680  32.2690582  24.8009086  53.5286379  62.7175236
  25.3368616  53.9370108  62.0376587  25.3422475  53.5692739  63.5058975
  64.9342823  70.0076866  23.7338209  64.8258495  69.1165543  23.4016180
  65.1627541  70.5250454  22.9615688  68.0332518  10.5770850  55.4205036
  67.4011278  10.6942928  56.1296654  68.8532066  10.9255111  55.7705164
  28.4968162   8.1712633  33.8046718  28.0455947   8.7761521  34.3935204
  29.4128180   8.4475684  33.8334155  29.9470091  15.5192196  43.1889105
  29.6544266  16.4104271  43.3796406  30.7778955  15.4346657  43.6565781
  51.8866920  35.2648139  59.6216869  51.0787630  34.7518086  59.6041727
  52.1350384  35.3520179  58.7013865  32.9971480  22.8612590  61.0596323
  32.2603631  22.2836399  61.2589645  33.2453847  23.2335401  61.9058084
  35.6706309   8.0970567  42.5396776  35.8137894   8.3103693  41.6175938
  35.1937294   7.2673011  42.5223160  68.3714533  41.2545872  11.1312783
  68.0315590  41.0910845  12.0110357  67.6714373  40.9646416  10.5463481
  50.0020218  56.9319630  65.4420328  49.6364784  57.3359871  66.2290335
  49.3690252  56.2543535  65.2045774  32.2002292  65.3606606  53.4109497
  31.9129539  66.2243176  53.1146383  32.9883385  65.1814079  52.8981256
   9.6353608  76.3721800  18.6903512  10.0512779  76.7456579  19.4673705
   9.0133965  75.7319117  19.0359676  19.5286560   4.2357108  61.1152077
  18.9543557   4.8675585  61.5478516  19.0708816   3.3992776  61.1991978
  11.1906481  21.6402006  60.4272556  10.3140616  21.4584851  60.0884199
  11.0603845  22.3429155  61.0640049  48.8406658   0.5607731  24.4926834
  49.0643930  -0.2173862  23.9821482  49.2591143   1.2830466  24.0242243
  21.8918300  59.7855186   4.7907251  21.1163044  60.3051043   5.0024438
  22.3155618  59.6325970   5.6352937  14.5378852   9.1213733  55.5595493
  14.1317439   9.3918920  56.3830185  15.4294777   9.4663227  55.6075621
  38.9447451   0.5351235  31.5138292  39.4103408   1.3592687  31.6560888
  39.6360826  -0.1035171  31.3394141  18.9245987   8.5709244  40.8768892
  18.8591850   7.6161343  40.8950090  19.8126936   8.7442708  40.5646849
  31.6993308  76.7686749  45.5215168  32.4850798  76.2654877  45.7351351
  31.3682532  77.0669413  46.3686609  12.8440642  74.7376394  36.8942785
  12.4509132  73.9163256  37.1894193  12.1243441  75.2115583  36.4775801
  16.8308842  23.7848210  38.0914235  17.1081746  24.2421198  37.2975588
  17.6413262  23.6394906  38.5795784  16.3618290  17.8005922  39.2769861
  17.2294378  17.3970985  39.3030834  16.5276086  18.7338650  39.4102240
  46.9455004  46.2932348  14.9265921  47.6723146  46.8030643  15.2844250
  46.2521982  46.3720322  15.5818415   6.9064891  69.2180395  52.2492218
   6.6186577  68.7382364  51.4725780   7.8106886  69.4658422  52.0562172
  49.7873116  11.1356449  21.7144418  49.1596222  11.7098999  22.1531487
  49.3252134  10.8266079  20.9352160  30.6187510  71.6554546  51.6475391
  30.6882572  72.1072388  50.8065319  30.3100681  72.3272514  52.2555161
  22.7140641   1.5713573   9.4989645  22.4456835   1.7702827  10.3959775
  22.9506946   2.4204975   9.1258711  80.4273701  72.7964973  54.3524456
  81.1070347  72.1930838  54.0521479  80.5351830  73.5719490  53.8017368
  72.1585989  51.7572594  15.3924096  72.9773664  51.8626881  15.8769035
  71.6835546  52.5742769  15.5442286  40.5643749  13.9830148  20.8924866
  39.9707508  14.7267127  20.7887840  40.3498745  13.6235607  21.7533088
  22.1228695  18.5490310  31.8253326  22.2244978  19.2715788  32.4448705
  21.2537575  18.1939840  32.0119286  69.2019558  49.6712971   0.9055462
  68.6120701  50.2595854   1.3769014  68.6436462  49.2401981   0.2584954
   7.6036024  26.9017982  23.7965965   7.3511243  27.5697184  24.4340658
   7.9365867  27.3980522  23.0488777  39.1547966  29.6573949  62.0980215
  39.1670680  29.9412513  61.1839581  38.3875561  29.0886307  62.1619081
   5.6904829  76.3661242  52.2930241   5.9012985  75.7901239  53.0278826
   6.5207654  76.7894077  52.0746326  18.1942153  64.0220308  30.8872342
  19.0765464  63.6519003  30.8602834  17.9583955  64.1462278  29.9678898
  42.8618956   5.6768233  17.8608179  43.6244440   6.2358600  18.0099070
  42.2704363   5.8802527  18.5854065  12.2904146   6.3253301  47.7788401
  11.6667128   5.6550395  47.4996662  13.1157720   5.8533216  47.8894091
  43.5830402  22.8657579  58.2097244  44.4276476  22.4154305  58.2185793
  43.7694836  23.7316728  58.5725832  39.3706369  48.3944273  12.1320784
  39.6630383  47.4839354  12.1737528  40.1000834  48.8618517  11.7250741
  74.3185091  18.9001882  59.2297697  74.0213203  18.8970518  60.1396608
  73.5929775  18.5135674  58.7395000  27.0826197  17.3160195  38.8927722
  26.5816975  17.4710166  39.6935749  27.9951358  17.4420333  39.1528940
  18.4159100   3.7464008  39.6680570  17.4779189   3.7848049  39.4811583
  18.8181913   3.5205537  38.8293719  57.9699993  27.9614973  57.3876905
  57.0910883  28.2549286  57.1475887  57.9603434  27.9341483  58.3444500
  64.9393177  29.5689344  53.0305290  65.5792999  28.9584899  52.6644421
  64.9021816  29.3475366  53.9610291  70.3854036  22.8587675  31.2575698
  70.9866476  22.3092628  31.7603397  69.5211363  22.4823952  31.4237666
  71.1160946  58.4934664   5.9804541  71.9219780  59.0037537   6.0604036
  71.2287378  57.9929018   5.1723814  62.2143138  -0.0535437  53.4480381
  61.6094864   0.0685791  54.1798162  62.0377005   0.6851629  52.8654909
  14.8357368  11.2706697  41.8069553  15.4721642  10.5592382  41.7358398
  14.5949614  11.4680147  40.9017992  79.5336962  43.0768681  41.1733389
  79.6266079  43.6387300  40.4039812  78.6994934  43.3395052  41.5623903
  28.6502385  23.4697366  54.2102146  27.9579663  23.1184340  54.7701979
  28.3647513  23.2654428  53.3197117  15.5223632  65.0666761   8.6255014
  14.7775078  64.5011139   8.8293654  15.1439846  65.7904053   8.1262219
  38.4902453  64.6443844  65.7194138  37.9785299  64.7558880  64.9181938
  38.8230181  65.5203199  65.9149265  15.1612651   2.5750691  36.5073824
  15.4905605   1.6786957  36.4417219  14.2239571   2.4743447  36.6733313
  78.0326748  30.8685851  53.4539318  77.6478148  30.0102949  53.6312819
  77.8987741  31.3628435  54.2626429  40.7874298  29.0513659  41.5979958
  40.7677507  29.5585752  40.7864618  41.6923904  29.1209388  41.9020367
  59.1914749  20.4927421  65.5119133  60.1413536  20.5882406  65.4423141
  58.8396692  21.2486625  65.0417614  75.3309687  52.2256753  67.2647049
  75.6956681  52.8772495  66.6658071  75.8423861  52.3255906  68.0676388
  24.7137642  26.2288284  20.6239343  24.0284872  25.5865240  20.4393530
  24.5380235  26.5157390  21.5200543  26.5552425  11.3126457  11.5713429
  26.8901563  12.0479357  11.0581040  27.3111749  10.7368279  11.6863739
  72.5033045   6.7989159  64.9697351  72.0577240   5.9721541  64.7849178
  72.8762197   6.6799682  65.8432436  24.3899870  24.1481853  36.8898630
  24.6102405  24.9601650  37.3463798  24.7295547  23.4552813  37.4562645
  71.0979939   4.5942679  65.0745344  70.4314947   4.3981665  64.4160843
  71.5385294   3.7580469  65.2258396  11.2633288  55.7446623  28.1429243
  11.2913024  55.2286243  28.9486265  10.6999791  55.2410269  27.5553679
  16.5478158   4.7613800  12.0460331  16.0482121   5.5434871  11.8116498
  17.4633181   5.0302929  11.9700503   6.7623955  56.1561918  38.5220647
   7.5134039  56.5014696  38.0393624   7.1073020  55.3953695  38.9894199
   2.6066691  32.6056242  18.1025469   2.0954247  32.3819613  18.8802588
   2.9216775  31.7640376  17.7728009  44.8899317  39.5853949  67.0979595
  45.3927279  39.4610858  66.2929916  44.6771145  38.6980009  67.3868752
  40.8870649  13.6322534  42.9052162  40.7147884  12.7999425  42.4649763
  40.8699036  14.2826271  42.2031116  79.7478914  45.4236460  19.3552685
  79.5590448  45.8791208  20.1757026  80.5769157  44.9732113  19.5167160
  46.7379951  31.7597556  14.3337762  47.4431133  31.1779284  14.6175230
  47.0691109  32.1639466  13.5317636  60.3904200  17.7388370  25.8951879
  60.5008030  16.8656290  25.5189514  59.4481039  17.9011524  25.8513618
  70.9491014  12.3160863   8.1650257  70.8133316  12.0808506   7.2471678
  70.4354048  11.6742206   8.6552900  73.5121918  39.5033121  42.1397972
  74.1678715  39.9995613  41.6498423  74.0195465  38.9985323  42.7754211
  80.4418659   6.2372530  36.0623288  79.8604441   6.9749612  36.2466455
  81.1736488   6.6234589  35.5811167  42.1446609  11.4710283  32.6457238
  42.8549671  11.5197873  32.0059443  42.5421906  11.7592597  33.4673834
  80.5211258  65.9371471  33.9527941  80.9973907  65.1592302  33.6625457
  80.6363583  65.9478951  34.9029708  77.7131081  59.6197701  54.0889978
  78.3134413  60.3447294  53.9150286  76.8418074  60.0127697  54.0378523
   3.6646423  46.6039944   9.1865784   3.3011329  46.1650515   9.9556184
   4.0853468  47.3896837   9.5357680  60.9894276  10.7608795  30.7978773
  60.3874207  10.3257453  30.1941538  61.4948177  11.3563395  30.2444887
  64.1314507  33.1121349  47.8448677  64.6705866  32.3782349  48.1397438
  64.7549582  33.7277150  47.4594736  41.6722393  17.9779112  56.5356636
  42.2963142  18.2660460  55.8695221  40.9707069  18.6283565  56.5039349
  53.2644844  59.4734907  60.7946444  53.4021187  60.1069117  61.4989662
  54.1257143  59.3761444  60.3883934  37.4385595  15.1714444  51.9096804
  37.6534128  15.8259809  52.5742531  37.4982667  15.6443703  51.0796165
   8.8783121  72.1740055  26.4689422   8.6789876  72.7076721  27.2381639
   9.4490725  72.7268457  25.9352493  73.2715178  15.5320680  27.3178029
  72.6022148  15.2284110  27.9310369  72.8078604  16.1346078  26.7362547
  64.1316366  17.0875406   1.7581543  63.8360643  17.4648976   2.5866899
  63.4427309  17.3129964   1.1330050  40.1464748  19.2427552  36.9588900
  39.6219110  18.7020826  37.5494313  40.9092331  18.7022257  36.7533255
  37.2947335  10.7435918  15.3904128  37.9485607  10.1072645  15.1008832
  37.6882362  11.1590791  16.1577189  67.5790310  33.4161949   5.2838510
  67.1861553  33.5286498   6.1494350  67.9870319  32.5509214   5.3165877
  28.6889124   4.0005285  36.8602800  29.1390729   3.9818153  37.7048135
  28.1814003   4.8119310  36.8773127   2.7237481  68.8252926   0.0122475
   3.1743851  68.0472851  -0.3161767   2.7925479  68.7578058   0.9645835
  18.6089110  14.2468417  45.4663801  19.3131459  14.2571795  46.1145878
  18.2320559  13.3697164  45.5361128  39.0575886  17.4140584  38.5857248
  38.1120586  17.3745215  38.7294054  39.4240856  17.5940621  39.4514680
  38.6907721  22.8961921  46.2898159  38.2356071  22.3891497  45.6175327
  38.2309055  23.7354660  46.3091946  44.7421408  29.3586516  61.4814615
  43.9098167  29.6871305  61.8214178  44.9054480  28.5582137  61.9803190
  35.0569320  41.1467695  36.2240434  35.8821201  41.6085529  36.0755420
  35.3196597  40.2835464  36.5434980  53.2582760   0.1108986  35.5909872
  52.7810574   0.3472209  36.3863754  52.9542208   0.7373259  34.9341989
  67.3960161  13.0789912  51.6443539  66.9295692  12.2781503  51.4049530
  66.8043995  13.5297239  52.2469044  14.2937005  26.9648600  51.7340660
  13.4505558  26.6909790  52.0950747  14.7524416  27.3640633  52.4732733
   5.9395927  37.2457242  58.8216114   6.6863710  36.7489028  58.4873581
   5.1735467  36.7934465  58.4682703  46.3095045  18.1180143  40.3818941
  45.7014894  18.0175579  39.6494651  45.8914089  18.7618184  40.9536839
  68.8820314  70.1910305   7.8805161  69.2829370  69.7124910   7.1549088
  69.5663309  70.2302933   8.5486645  48.0379200  10.0805032  10.7219970
  48.4176302   9.2049789  10.7962072  48.0284309  10.2585304   9.7815466
  53.2524109   6.9546360  45.9600306  52.7226305   6.2190276  46.2673569
  54.1491890   6.6199511  45.9588480  49.6725178  19.0177464  50.4285431
  49.1982317  18.1911671  50.3388166  49.3163109  19.4131291  51.2241697
  12.2674727  48.7774897  48.0734968  12.8407764  48.2529116  48.6323977
  12.5992370  49.6710157  48.1616402  36.4681363  19.8764777  37.1276331
  35.7157588  19.9511480  37.7146459  36.5023661  18.9475870  36.8991113
  35.2350044  23.9693046  59.3753862  34.6058202  23.4879756  59.9126768
  36.0301042  23.4370565  59.4029617  60.0005627  17.5388300  40.5209303
  60.2344656  17.3368263  39.6149969  60.6446743  18.1918263  40.7946968
  42.0664740  65.3064346  -0.0074942  42.5409889  64.9702072   0.7527783
  42.7518845  65.6118011  -0.6017952  37.6165462  31.1731529  18.3215952
  37.5468278  31.4540172  19.2340028  37.4117064  30.2383590  18.3424282
   1.0462801  35.5140615  22.1651196   0.5947635  35.7106709  22.9859185
   1.7931412  34.9750805  22.4257541  40.2334452  26.6955853  62.5446558
  39.7477841  26.7206311  61.7201948  39.6859074  26.1715865  63.1293440
  55.1958179   1.4657898  52.5031090  54.6840000   1.1988436  53.2666588
  55.9832811   1.8668562  52.8709126  50.8046293  19.0833700  46.2786674
  51.1533642  18.5646439  45.5537271  51.5762568  19.4826233  46.6804314
  40.3486443  34.3822598  37.0813513  41.0646963  35.0143981  37.1438479
  40.2666235  34.0250707  37.9656124   6.6273350  28.8210392  25.6640124
   6.3258773  29.1515088  24.8177600   7.3246825  29.4238806  25.9219265
   6.1784929  34.5061111   8.2620835   5.6866884  33.6890769   8.1795335
   5.8919412  34.8747754   9.0976715  36.3538575   3.1582546  17.7226269
  36.3557482   4.0210056  18.1372213  35.4369259   3.0036578  17.4955392
  59.3414688  68.7894535   4.8554161  58.9545965  68.2944059   4.1332725
  59.5998287  69.6233320   4.4628322   6.8015826   7.7702284  50.4466677
   5.9812027   7.5365317  50.0123930   7.4837852   7.4918252  49.8356676
  28.3779359  60.6952620   0.8419190  28.6803937  60.4635048   1.7200068
  27.8396058  61.4759254   0.9723023  66.6896200  21.1246991  36.2632012
  66.7602158  20.4792237  36.9664884  67.5961494  21.3382912  36.0422540
  47.5175333  31.6252756  42.0409584  47.9846239  32.4330807  41.8276405
  47.4459362  31.1624217  41.2061691  44.0243387  30.8233190  40.7846260
  44.1723585  30.5264521  39.8867416  44.4436884  31.6828275  40.8249092
  24.8948264  24.9473500  44.6231937  23.9538097  25.0987673  44.5349360
  25.2914405  25.5108333  43.9588022  35.6245685  58.5266304  48.2650948
  35.4102588  59.1379547  47.5604057  36.5813565  58.5016108  48.2777500
  21.7364025  25.4528999  46.1406231  21.4012814  25.9830046  45.4174948
  22.3633957  26.0233402  46.5852690  44.3249464  13.4230089  39.5824528
  43.5683250  12.9603267  39.2223406  44.0813160  13.6115551  40.4887247
  39.8809242  35.8890080  46.3789845  40.7664394  35.5688691  46.2069130
  39.6687412  35.5506682  47.2488880  80.2122784  25.8112526  20.0769067
  80.2958488  25.1386738  19.4009745  80.3473473  25.3416944  20.9000134
  16.6006553  74.7514486  25.4878759  17.1412182  75.5381107  25.4158592
  15.9069860  74.9928665  26.1016917  68.4281111  67.3362398  49.7502947
  68.6945915  68.2467794  49.6232796  69.2418814  66.8744516  49.9521875
  76.3890648  62.8836584  36.0136795  75.8296824  62.2889996  35.5139756
  76.8883276  63.3581257  35.3489614  50.8598375  65.5427313   5.7727039
  50.5395460  64.6505594   5.9056646  50.8279419  65.9407949   6.6426229
  29.4391632  34.3231368  31.5527058  29.8626471  33.9532089  30.7780766
  28.7035084  34.8276472  31.2055612  44.2100906   9.8347467  51.6859627
  44.1218138   9.1415894  51.0317707  44.9213696  10.3847694  51.3576508
  27.0891309   7.3113197  40.3632498  27.6603127   8.0307674  40.0942183
  27.3054123   7.1653283  41.2841940  23.3531213  73.1455469  33.6004782
  24.0660214  73.2045984  34.2364955  23.0564952  74.0487242  33.4886408
  64.1893101   5.0858587  65.9720707  63.4170008   4.6444765  66.3255548
  63.8606071   5.9275997  65.6563807   2.1013255  59.8616171  24.1914415
   1.5541859  59.8141289  24.9754167   1.4793709  59.9647808  23.4711909
  54.5573187  25.7996750  21.5360451  54.3577814  24.8674822  21.4498377
  53.7576580  26.2429786  21.2527418  28.8458514  33.9937735  49.1278172
  28.8489461  33.2172108  49.6874332  29.4825292  33.7964725  48.4408331
  74.1966963  60.0419712  35.1862645  75.0994825  59.7473812  35.3063440
  73.7562180  59.3008423  34.7704077  69.9415636  20.8286142  52.5045061
  69.9352169  19.8883557  52.6836872  69.1462898  21.1576462  52.9234457
  57.1324921   3.9338064  60.3978014  57.7166367   4.4773495  60.9265423
  56.3261938   3.8795096  60.9108019  26.2605286  31.0930014  65.3668308
  25.6255150  30.5579257  65.8429432  26.1117625  31.9827700  65.6868505
  79.3034840  26.8370485  44.7995806  78.8200569  26.1731052  45.2912235
  78.6315203  27.3035431  44.3025112  31.4382267  15.8884466  52.1225357
  31.2384868  15.7638693  51.1947298  30.6829810  15.5208743  52.5815821
  41.8182564  66.6574430  57.3050213  42.3987007  67.4085140  57.1816874
  41.8542051  66.1875963  56.4718437  73.3950615  13.4405947  49.8502302
  73.0289125  12.7075636  50.3450346  72.7130890  14.1117525  49.8765326
  17.0592678  61.5237808  47.6810598  17.7019763  61.0052633  48.1651020
  16.8314862  62.2385645  48.2755613  44.1947746   5.6926054  39.0312481
  44.6132517   5.8375990  38.1826687  44.2148066   4.7428900  39.1490221
  41.4592171  25.1778626  41.6109562  41.4371109  24.5367527  42.3213911
  41.6321516  26.0123873  42.0467234  52.1678734  10.9816456  28.2561207
  51.8999386  11.8091166  28.6557865  52.6059294  10.5056560  28.9616513
  43.5407925   5.2400029  30.4824018  43.9275074   5.8178669  31.1402416
  43.0828762   5.8306009  29.8842883  60.7440424  58.1561613   8.0611998
  60.2610397  58.3704090   8.8593459  60.0676346  58.0571985   7.3911905
  40.7429314   9.8036867  47.2913837  40.1009798   9.2021948  46.9141150
  40.3829432  10.6745255  47.1232176  11.6188014  23.6303115  65.7565975
  10.8525562  24.1514087  65.9965134  12.0841753  23.4946537  66.5819788
  36.4426517  17.3191822  39.7288442  36.8051124  16.4437473  39.5929456
  35.4942489  17.1902883  39.7166276  76.3329792  72.3627090   3.7810585
  77.2723675  72.3376513   3.5989809  76.1757278  71.5975094   4.3342048
  24.2648149  16.0790300  23.6982083  23.6618662  16.8223560  23.7104797
  24.6144986  16.0689569  22.8072262  34.8559427  21.8969607  49.2784214
  34.3924546  21.4250231  49.9702930  34.9037695  21.2734127  48.5537624
  61.2846708  23.3753991  26.7364979  60.8557987  23.8755083  26.0420942
  62.1474743  23.1628156  26.3806772  62.9361296   8.3959031  23.9659405
  63.2530260   8.3264756  24.8664904  63.5311460   9.0197945  23.5500765
  71.8872118  12.7725017  32.7722931  72.6854229  12.9557478  33.2677889
  72.1755457  12.2108102  32.0528507  23.9059234  33.8061571  56.4034748
  23.7352037  34.4387126  55.7056475  24.5739198  33.2242012  56.0410643
  16.4719069  70.2531242  29.6326089  17.3892879  70.0034809  29.7436142
  15.9929419  69.6757460  30.2271342  54.3766451  48.5054636  39.6680474
  55.0207853  49.1420317  39.9780321  53.5325289  48.8696480  39.9346375
  31.3018203  78.0571270  59.0286779  32.1749234  77.7326918  58.8080788
  30.7070732  77.3745728  58.7178373  47.8026152  25.4291868  58.7995672
  48.1686258  24.8186159  59.4394684  46.8559456  25.3016043  58.8610363
  66.7913055  38.4993505  12.6645994  65.9821701  38.1096625  12.9957724
  67.0465755  37.9364729  11.9336820  60.1962471  36.7521858  29.9403095
  60.8729458  36.1308479  30.2091074  59.3844557  36.3911366  30.2964997
  72.2122097  38.9338994  52.0220041  72.7405357  39.2671585  51.2967110
  72.7600098  39.0627050  52.7963161  58.9985991  39.8298526  56.9463015
  58.2214546  40.0107765  56.4175797  59.4733858  40.6607580  56.9663763
  16.3690937  40.2514267  41.6735315  16.2751269  39.7771239  42.4996281
  16.6252875  41.1363840  41.9332457  55.1111555  21.2114930  59.1850424
  55.3254080  20.5829811  59.8744631  54.3184566  20.8607173  58.7790632
  18.5222650  11.6222513  21.9398212  18.7543023  12.5508022  21.9262266
  18.8073409  11.3167191  22.8009915  58.5016060  54.2959166  40.2776670
  58.4689379  55.2520800  40.3079605  57.7292299  54.0458202  39.7706008
  48.9881182  48.2635593  58.1985378  49.4986868  48.9921284  58.5517216
  49.3586349  47.4864292  58.6168909  73.1110668  24.4777584  54.1886091
  72.8547907  24.8348308  53.3382845  72.9306221  25.1838923  54.8091316
  81.7996788  30.5006099  52.1571350  81.0046768  30.9098220  51.8154526
  81.6362953  30.4065156  53.0955791  27.1180105  35.9686089  56.8689585
  27.6047254  35.4730463  57.5275612  27.1299458  35.4100275  56.0917377
  71.5328884  39.9773955  59.3513966  70.9678459  40.7220793  59.5573330
  71.3245344  39.7628975  58.4421062  55.3783607  56.0445356  61.7027378
  55.1873636  55.4249573  62.4069166  56.1367226  55.6707335  61.2539673
  66.7411470   9.9315029  60.9767056  67.4409008  10.3339231  60.4622746
  67.1916771   9.3115854  61.5502548  47.4399519  32.6148725  55.7110500
  47.0158291  33.2965374  56.2322855  46.7797756  31.9259477  55.6350088
  23.5081673  26.5565896   1.6163765  24.3803883  26.6465855   2.0002535
  23.6716080  26.3264346   0.7017472  70.1284075  49.5312023  37.0495725
  69.6196699  49.3569613  37.8414440  69.4950438  49.4536352  36.3360858
  63.4773922  24.5044756  38.8438010  63.5772419  25.4553270  38.8900971
  64.2863512  24.1983795  38.4337759  54.8394060  51.9935274  47.4907446
  55.6105471  51.8795919  46.9352341  54.7650576  52.9408550  47.6059437
   8.6323923  43.2140064  46.9099665   8.3637279  42.9498863  47.7899075
   8.2320356  44.0744972  46.7854691  67.5571585  46.5067339  44.6828461
  67.1139622  45.7378197  44.3242693  67.6923513  47.0791435  43.9276695
  49.6136570  60.6787205  42.3888969  49.7694731  61.0503769  43.2571268
  49.4868517  59.7433901  42.5479746  76.6109371  20.1771879  37.8087568
  76.5500450  19.3542731  38.2938719  76.6608953  20.8514953  38.4862852
  70.7193613  46.3365173  15.7728910  71.6413832  46.3894320  15.5212724
  70.2398443  46.5367794  14.9690318  62.5086498  40.6893539  25.9670711
  62.0447159  40.8263397  25.1411009  63.3676434  40.3566170  25.7069683
  58.6998415  76.4542675  39.9913406  58.3875179  75.6735086  40.4486132
  58.0482149  76.6079092  39.3072295  50.4898500  42.1052217  60.7734156
  50.1477194  42.7097368  61.4320040  50.0042725  41.2931776  60.9184170
  28.8147378  28.4687281  60.2436543  29.7310185  28.1962323  60.1945972
  28.8277173  29.3962336  60.0074387  65.9404087  66.7402315  40.5281448
  65.9736300  65.9868097  39.9386644  65.7943678  66.3602638  41.3944721
  50.8962679  43.5534668  52.2930145  50.8723116  44.4874859  52.0850229
  51.6411161  43.2162762  51.7952871  57.8484249  65.5634022  58.6736965
  58.5500145  66.2025166  58.7983656  57.0646238  66.0933828  58.5287619
  48.4286356  42.0623732  52.8789616  48.7256336  41.3500977  53.4452534
  49.2353106  42.4694872  52.5631094  55.6294870  43.7182093  57.1276808
  54.9885941  43.9039946  56.4414024  56.4696646  43.6913061  56.6698503
  48.7337255  35.4281950  44.2366743  48.7352991  35.0277019  43.3672857
  49.1503668  36.2803864  44.1085625  76.3313007  35.7252145  43.7010384
  76.5823126  34.8037815  43.7657213  76.7103100  36.0191202  42.8726625
   0.8277388  19.6057153  66.2877512   0.6466512  20.3245783  66.8932915
   1.6136767  19.1880488  66.6400146  64.8310947  54.0163803  40.2279139
  65.0417233  53.5929346  39.3957114  65.6473732  53.9834738  40.7267475
  56.5425008  77.7243838  56.4840364  57.0990459  76.9522217  56.5853024
  57.1104045  78.3768612  56.0741663  63.3228588  19.7183800  44.8235941
  64.2406940  19.7695124  44.5567656  62.8817129  20.3812838  44.2923880
  52.8903580  38.1422806  64.0514994  53.0881643  37.4957895  63.3738899
  53.7410021  38.3544755  64.4357014  21.9429564  67.9905033  43.8505840
  22.4351859  68.2819653  43.0831242  22.3623180  67.1689224  44.1062641
  34.1843438   0.3175850   5.0945711  34.0168571   1.2133236   5.3875434
  33.8210011  -0.2331226   5.7880664  44.3032932  42.9308462  50.5919266
  43.4609461  42.8026819  51.0281086  44.2666531  43.8275528  50.2590418
  46.6893578  64.3867159  19.3068039  45.7855892  64.6242571  19.5141840
  46.8280220  64.7223330  18.4211588  48.5879707  58.9952421  44.4238567
  49.1908836  59.3222904  45.0915146  47.8248215  59.5694160  44.4883633
  70.6360340  33.9412785  58.9181900  70.1528120  33.9389944  59.7444630
  70.1173115  34.4994783  58.3389044  82.1702597  44.2286348  19.9646211
  82.3816121  43.9994240  19.0596223  82.5504640  43.5215187  20.4858351
  72.8935099  46.9250154  22.8576136  73.5654020  47.3242569  22.3049855
  73.1022644  45.9908772  22.8514147  48.9088869  41.5636921  11.2688673
  48.0366659  41.5959406  11.6618383  49.4778728  41.2544155  11.9737315
  53.5654736  61.3546515  33.8398337  53.5259771  60.5874681  33.2687807
  53.8443995  62.0671940  33.2647491  81.5302944  36.1202693  53.5548019
  81.3046169  36.8643427  54.1130638  81.9995689  36.5085101  52.8163671
  47.4936581  59.3176460  32.4293447  47.3547792  60.1450682  32.8901243
  48.3386374  59.0033007  32.7509499  65.3414917  48.4555864  15.6055593
  65.4433155  49.3298244  15.9818268  65.5776834  48.5624170  14.6841300
  78.1066370  19.6987438  55.2549028  77.5481701  19.5011592  54.5030308
  78.4481049  18.8478267  55.5298042  69.9412346  30.5168319  24.3259358
  70.5324411  30.4499984  23.5761070  69.8578024  31.4575219  24.4820571
  77.9068232  22.4731350  35.8230162  77.1106386  22.9359913  35.5620766
  77.9845619  22.6409984  36.7621708  48.7925529  47.3474455  40.6908131
  49.1928291  46.4827585  40.7820511  48.3741570  47.5081491  41.5365982
  49.3737316  40.1053286  50.2144909  49.2634678  40.2385378  49.2730427
  48.5199118  39.7928405  50.5137920  66.9294262  39.9469590  36.1985588
  67.7572155  40.4138422  36.3126326  67.1321917  39.2484498  35.5763006
  68.1328154   6.9403398  35.7634068  67.5044107   7.0366108  35.0478148
  68.8985109   6.5346140  35.3568006  54.5832825  44.8353958  41.1526775
  54.5495701  45.7475233  41.4409781  54.4279051  44.3267584  41.9485331
  26.2035584   7.3911113  56.0230160  25.2896500   7.4788582  55.7522726
  26.2317753   7.7755708  56.8991566  73.4668732  71.3124704  26.5540886
  73.9659309  71.9197369  27.1003509  72.6420403  71.1900234  27.0240736
  48.6504745  49.7087002  10.6340408  48.8205576  48.8530397  11.0279274
  49.2173195  49.7344542   9.8631632  67.8040314  53.1152487  58.0572653
  68.2551813  52.3449135  57.7118969  67.1666288  52.7614641  58.6775732
  28.1108379  58.6548138  34.6375990  27.8104115  59.5625782  34.6816897
  28.6106610  58.6072588  33.8226461  76.9884491  73.2985973  23.3249283
  76.5390825  73.7451267  24.0425014  77.6882792  73.8996792  23.0696464
  25.1494050  66.7256117   2.9945821  25.9815907  67.1266842   3.2452640
  25.2252817  65.8161354   3.2832462   8.9267153  49.2306232  42.1056938
   9.8468709  49.1597462  41.8516827   8.9484191  49.3398809  43.0563879
  29.4939542  47.8766346   6.8869740  29.3907285  48.0016851   5.9436077
  29.7243905  48.7440395   7.2197610  64.8083162  57.0483208  47.9855013
  63.9774418  56.5734959  47.9649878  64.8087978  57.4937057  48.8327694
  37.9971290  72.8609371  36.1839032  37.4935079  72.0718575  36.3837767
  38.8833833  72.6624060  36.4861822  45.2384186  53.7537336  40.5927992
  45.6446505  53.5411882  39.7525430  44.4164038  54.1849375  40.3591633
  15.5518365  49.6611977  36.1792445  15.0359607  50.2080107  36.7717814
  16.4055800  50.0920725  36.1379933  32.1295834  71.6915846  42.6213884
  31.5112996  72.3233080  42.2541237  32.8872681  72.2182226  42.8759384
  76.9355965  55.8068180  35.3069258  77.6828241  56.3976097  35.4009533
  77.0689106  55.1425314  35.9830761  42.7043581  32.0727658  56.8744755
  42.6832867  33.0285263  56.9224930  42.8376007  31.7903757  57.7793169
  53.0090189  32.4746847  58.7643623  52.9432583  31.6532564  59.2513609
  52.1088076  32.7961540  58.7142754  66.8649626  48.3679533   5.7114989
  67.5714302  48.8214540   5.2516437  67.2815609  47.5905371   6.0833901
  52.4613722  41.4037031  67.6240257  53.0426319  40.7226420  67.2856088
  52.2540291  41.9426838  66.8606515   4.0902540  64.7957420  18.0459964
   3.1760287  64.5340967  17.9366124   4.1552782  65.6351519  17.5905859
  20.4532886   4.0855640  25.5148721  20.6430197   3.8151097  26.4132524
  19.9752855   4.9095449  25.6086850  29.1094995  47.7816486  30.0332093
  28.7850595  48.2295609  29.2519617  29.1678286  46.8617678  29.7750473
  40.5338144   4.3116388  51.5207195  39.9887252   5.0834584  51.6737032
  39.9641728   3.7064040  51.0459232   6.2411177  71.8917465  39.5380259
   5.9768510  72.2243834  40.3957844   5.4527479  71.9637156  38.9999485
  82.2348213  20.4364181  23.4667134  83.0537033  20.4344702  22.9710746
  81.7954159  19.6268344  23.2064724  70.8606291  70.1811790  26.0496783
  70.0863075  70.0928640  25.4939270  71.5850449  69.8813677  25.5005288
   5.4351389  64.4056416  43.6809254   6.3091785  64.6654558  43.3897543
   5.3310221  64.8286772  44.5332336  51.9399977  28.6120605  55.2564716
  52.0189667  28.2566166  56.1417150  51.7631006  29.5436287  55.3873205
  73.7205410  75.0056314  10.2614641  72.8338671  75.3458595  10.1419246
  74.0676880  75.4978752  11.0053837  35.0659227  61.8599224  41.8434906
  34.1861200  62.2130346  41.7112350  34.9541855  61.1817980  42.5097466
  76.2899303  50.0670481  56.0446024  75.5228233  50.5293322  55.7068634
  76.0621643  49.1401768  55.9720707  71.4815283  68.8438654  48.3550406
  71.7893887  68.7964010  47.4499416  72.1061230  68.3124018  48.8486576
  82.4814034  64.2194414   1.7166406  81.5759945  64.0812111   1.9947746
  82.6063728  63.6046886   0.9936648  74.7148848  21.8678236  16.2788141
  74.8310280  22.7726555  15.9889483  74.3416166  21.9436812  17.1569645
   6.0601360  52.7844429  20.2693844   5.2016896  52.3802376  20.3955531
   5.9859091  53.6407566  20.6906319  71.4581776  34.9733138  54.0629244
  71.4617109  35.8451366  53.6677742  71.7983627  34.3982863  53.3774710
  77.6872730  12.5202644  16.8317664  77.7008104  13.4759784  16.7802072
  78.2661009  12.2340608  16.1251712   8.5471809  59.4798565  20.1666880
   9.4985580  59.5135689  20.2665710   8.2952988  60.3813124  19.9662793
  53.2333040  27.9653788  52.8316116  52.4748278  27.9889870  52.2481823
  52.8803349  28.1900477  53.6925220  34.5216846  61.1064816  49.6732855
  34.9836755  61.8916750  49.3795633  35.0661445  60.3803587  49.3690777
  75.1788378   9.7990817  51.1145735  74.5026064  10.4492974  51.3047266
  74.9687147   9.4851708  50.2350616  50.4033613  50.3603458  59.1175699
  50.1047707  50.8224297  59.9008656  51.0691452  50.9349537  58.7397003
  16.7214847  68.1311941  36.5064216  16.3927794  68.8976955  36.0366797
  17.2307312  68.4944868  37.2309351  73.0862045  29.6430111  35.3565931
  72.8517342  29.0600872  36.0787129  73.5111952  29.0722728  34.7163796
  81.6614532  33.4652591  57.9962921  81.0244942  33.1848979  57.3390913
  81.1767197  33.4498024  58.8215351  19.5905054  46.3199568  40.6353092
  20.2314711  45.9657860  41.2517166  19.3707943  45.5813694  40.0674677
  15.4165947   3.7988991  51.0845757  15.5348790   4.6202123  51.5617371
  15.7311940   3.9880428  50.2005577  74.4533539  33.2982183  29.5406461
  75.0986719  32.5912547  29.5397234  74.6168947  33.7707233  30.3568745
  45.0428772  62.3210907  31.4050913  45.2808428  62.3602390  30.4787707
  44.1677237  62.7068615  31.4440680  57.0778656  48.6319780   4.1808674
  57.2932339  49.3476725   4.7788918  57.0481920  49.0426302   3.3167398
  60.2503920  69.9699688  38.3721066  59.9051666  69.8240757  39.2528820
  60.3029251  69.0950251  37.9874730  32.1694851  53.6173677  16.7097735
  32.6432705  53.7373114  15.8867466  32.7841330  53.1479263  17.2737467
  48.3298159  35.6533623  65.8051729  49.0375614  35.1054955  66.1445427
  48.6741781  36.5452766  65.8513451  51.9520569  50.0935125  35.6688833
  51.5786600  50.9171057  35.3550339  52.7618647  49.9917269  35.1688004
  77.4608374  68.4950781  17.5600493  77.3607397  69.4433832  17.4768138
  77.3581028  68.3246565  18.4963369  37.0358872   5.9694397  38.2613921
  37.3670411   5.8642304  37.3694849  36.0836363   5.9744114  38.1642938
  21.4367986   3.0336875  42.3209572  21.3619447   3.9686853  42.5117636
  22.3142719   2.9340944  41.9516945  49.7689724  54.9030209  38.6317825
  49.1946554  54.1563749  38.4617448  49.5579672  55.5299425  37.9399204
  37.6672339  60.2928925  45.6786728  37.6269293  59.7933006  46.4941549
  38.0376077  61.1379385  45.9335423  65.6245279  74.1562557  58.6980104
  65.9644270  74.5790100  57.9093552  65.4444885  73.2556438  58.4283543
  34.1146898  62.8454256   3.9350784  33.3239317  62.9486418   4.4644919
  33.8077784  62.4448490   3.1217071  81.3846874  74.8889875  52.8935194
  81.7286396  75.6571579  53.3494186  81.8447113  74.8827219  52.0541334
  49.8430634  67.8735399  29.8828602  50.5149078  67.2200966  30.0774527
  49.0860415  67.3613834  29.5985413  74.8135567  58.3414507  50.7879639
  74.0048933  58.2258511  50.2890301  75.2999592  59.0091467  50.3044081
  59.1985607  72.1790981  59.8779583  58.5597515  71.4847279  59.7167063
  60.0285625  71.7177391  59.9982929  16.9316840  73.5171032   3.2841757
  16.8832970  73.0952835   2.4262947  16.1383379  74.0503502   3.3339661
  75.5343008  37.1911407   8.1795657  75.1422548  36.9102454   7.3527473
  74.8044205  37.5584722   8.6781353  69.6833372  36.5083623  32.4082184
  70.5279684  36.9586825  32.4146771  69.7119236  35.9346533  33.1739020
  64.1178513  59.0985632  65.2413177  63.3681822  59.6890354  65.3159761
  63.9805317  58.4487963  65.9306479  52.4077892  14.7998071  13.1173992
  51.5752792  15.0999594  12.7526140  52.3671436  13.8456070  13.0535042
  13.3081293  61.0469770  33.0828428  13.4560335  61.1050463  32.1389222
  13.0689704  60.1322126  33.2319736   0.1568672  24.1150641  55.0833416
  -0.2901596  23.2758951  55.1937532   1.0812586  23.8838673  54.9923468
  14.1082764  59.6667767  36.4806867  13.8182640  60.5511045  36.2568855
  13.3051336  59.2051268  36.7216730  67.5605917  60.7941437  54.3446064
  66.9454145  60.2979374  54.8845816  67.4394798  61.7035246  54.6177197
   7.2907829  10.5499339  42.7865648   7.9395163  10.8675408  43.4146595
   6.4644146  10.9323478  43.0817032  16.8638277  44.4861889   8.9939868
  17.1765959  45.3908253   8.9876699  17.0961189  44.1464138   8.1297964
  67.8616476  65.0196075  44.5502520  67.1233845  64.4443035  44.3496847
  68.4075499  64.5090961  45.1482534  11.2028253   3.4946266  44.7256327
  11.3281512   2.5583225  44.8800993  11.4930308   3.9121231  45.5366278
  78.5808754  54.5084381  32.0883393  79.3497705  54.6087694  31.5271211
  78.8561583  54.8569107  32.9362917  10.3993630  64.1545153  31.2441540
  11.1902809  63.8946724  30.7717514  10.2278125  63.4271812  31.8423080
  75.9934664  25.5699134  28.2091093  75.6307888  26.0133314  28.9759684
  75.5722857  24.7103572  28.2079720  18.8091671  38.8721657  41.4454079
  19.3082917  39.4639063  40.8824253  17.9238033  39.2359519  41.4500666
  68.0917931  69.6104527   1.4925244  67.6230669  68.8243771   1.7729068
  67.4620390  70.0836468   0.9487118  64.5252323  61.8531942  25.1148868
  65.2254057  62.4979973  25.0137806  63.7850571  62.2263193  24.6361923
  49.9761629  65.8544922  24.0494299  49.3262672  66.5017128  24.3232393
  50.6421375  66.3642025  23.5880136  18.3295131  27.9721117  29.3590808
  17.7111661  27.7033162  30.0385118  18.8028967  28.7095451  29.7442198
  42.2429323  57.5920200  53.0489874  42.7077103  56.9538403  53.5902214
  42.2932625  57.2356844  52.1620131  82.3090363  67.3583031  18.8430643
  81.9839859  67.4448204  19.7392166  81.5215683  67.3814583  18.2993746
  38.4471989  65.5543375   4.6077096  38.8118601  64.6693420   4.6138498
  37.5026155  65.4236031   4.5246187  43.2096815  48.2008028  49.1326809
  42.5893831  48.9287281  49.1725302  43.6356878  48.2955074  48.2807541
  18.7769032  65.4351425  65.2452135  18.4125280  66.0457897  64.6044540
  19.6688211  65.7487822  65.3947067  47.5944710  13.8897002  35.5311036
  48.4249496  14.1461527  35.9320712  47.6294136  14.2609513  34.6495223
   0.8027221  30.5084038  30.4169011   1.4382616  29.9671173  30.8852291
   1.0087708  31.4043903  30.6833220   5.4799318  28.2640743  66.2204218
   5.1168096  28.5892987  65.3966475   6.1946100  28.8680434  66.4221382
  79.0803957  57.4407196  35.1073456  79.8183489  57.6844549  34.5485497
  79.4340134  57.4678087  35.9964204  13.6190009  24.7223949  27.0822573
  13.3129025  25.3078175  27.7749443  14.5692992  24.6956420  27.1938300
   9.3917501  70.6016922  54.3980980   8.9040476  70.2545452  55.1450062
  10.3048193  70.3848648  54.5865774  67.3495913  50.7279539  63.7090445
  67.3590660  49.8077631  63.4456158  67.3717833  51.2134075  62.8843784
   8.2377684  27.8021884  39.7783995   8.3990824  28.7054634  40.0509882
   8.2148844  27.3056102  40.5963945  20.1014614  11.8661225  43.2885075
  19.2319846  11.5724611  43.0164671  20.6936002  11.1810505  42.9782200
  58.5349417  40.2406883  44.2312908  58.6946106  41.0946465  43.8294315
  58.2099628  40.4455519  45.1080132  36.5359163   4.9472034  21.9872952
  36.8044496   5.6882721  21.4442134  35.9166336   5.3214544  22.6139212
  47.4085283  50.6053638  54.0136242  46.5792751  50.8396387  53.5968637
  47.8563213  51.4414501  54.1427231  22.0367408  11.9545746  13.1855631
  22.2749925  11.6399586  14.0576208  22.8623796  12.2544920  12.8052998
  52.7201843   2.9734057  12.0087624  53.1268024   3.2576501  12.8273606
  53.3013058   3.3058050  11.3246250  18.8047040   1.8660255  36.3136029
  17.8671217   1.6945229  36.4016771  19.2080641   0.9979632  36.3141489
  72.9660606  56.2035370  10.9822822  72.1923399  56.0359430  10.4442251
  73.0213690  57.1578646  11.0315824  51.6988850   3.4962866  45.9922981
  51.4883852   4.1382915  45.3142452  51.1117983   2.7609986  45.8164740
  61.7792940  70.4600716  59.5126867  61.6649055  70.6060553  58.5736275
  62.3687744  69.7079611  59.5681000  76.7351294  66.3521051  25.3813744
  76.2536716  65.5251551  25.4056597  76.1846685  66.9641685  25.8698416
   7.2998285  65.8917236  25.8287501   8.0378914  66.4811659  25.6736684
   7.4519038  65.5435038  26.7072988  30.0472307  28.0956054  39.6200180
  30.8189726  27.8026581  40.1046085  29.4917011  27.3182893  39.5617294
  76.3262463  40.5222082  22.6221800  76.5498543  39.9710512  21.8722105
  75.8008480  39.9558973  23.1874084   6.5031654   9.3879569  30.2834797
   5.7493675   9.9440873  30.0866532   6.5437502   9.3691248  31.2396336
   6.4259815  66.9174767  63.7768459   5.7316071  66.6587305  64.3827534
   6.8933702  66.1040640  63.5867405  68.0993509  20.5940604  56.5913820
  67.7635765  19.8553884  57.0991755  69.0373373  20.6088448  56.7816353
  71.4049006  61.5794230  58.9278555  71.9921780  62.0423317  58.3303165
  70.6258345  62.1335506  58.9751244  58.3204079  50.6236696  62.9869223
  58.1095600  50.1059389  63.7639189  59.0357924  51.1948490  63.2665825
  72.3284626  22.6450896  46.6819668  72.0847893  21.7323732  46.8362570
  73.2785416  22.6232743  46.5674925  61.8867683   4.0423062  32.9793692
  61.6562605   3.9293414  32.0572329  61.3272858   4.7583759  33.2801247
  71.5631533  70.3381300  21.1026216  71.5923166  69.4547701  21.4701247
  71.1353540  70.8645153  21.7780018  20.4647756  33.5983634   3.9538977
  20.1428652  34.1204357   4.6887749  19.8529601  32.8645563   3.8952333
  50.1637936   1.6832770  31.3259864  49.9106646   2.1740478  30.5441284
  50.4528809   0.8339071  30.9924698  29.6328306  64.5823431  54.5969772
  30.4324913  64.6967316  54.0834713  29.7414589  63.7321949  55.0232220
  78.8898182  51.9904184  48.4963131  78.1972742  52.2523928  47.8896999
  78.9061928  52.6844692  49.1552925  77.8995705  31.5393686  23.3557487
  78.5786390  32.1254182  23.6898804  77.5416040  31.1175895  24.1368985
  74.7540855  50.2665281  37.3036027  74.8694944  49.4136238  37.7224898
  75.6229305  50.4884815  36.9688320  73.3412027  10.7104707  47.8121328
  72.5464821  11.0967278  48.1801796  73.9900351  11.4130294  47.8529167
  59.5344019  60.1420736  32.6330876  60.1897192  59.5632458  32.2435403
  59.7475767  61.0100651  32.2904897  70.7226515  62.7246332  46.8614817
  70.3472614  63.5365248  47.2022820  70.5340433  62.7488375  45.9233570
  80.4491901  72.0453739  39.2048192  81.0622883  72.0243597  38.4700370
  80.5486393  72.9225874  39.5747280   9.7601539  31.1834669  42.3930025
   9.6198797  31.8476224  41.7181301   9.5420915  31.6258240  43.2133675
  40.7689428  11.7773211  18.4212196  40.4662991  11.3083875  19.1988695
  41.2383032  12.5365555  18.7669003  29.3812251  12.7784789   2.8310803
  30.2532196  12.5579059   3.1584966  28.8081956  12.1100628   3.2066980
  50.8687449  25.8686638   6.6306496  51.1554384  25.3430271   5.8838278
  51.3593054  25.5169225   7.3735201  66.6437292  71.9070625  31.8648362
  67.3085785  71.6292238  31.2347460  65.9304714  72.2485590  31.3255048
  50.1122189  43.8373661  58.4712267  50.3959846  43.4705734  59.3085861
  49.8050594  44.7178411  58.6872101  55.2912617  75.9243727  61.3876152
  55.9811115  75.3398228  61.7016935  55.6399632  76.2916708  60.5753803
  11.5508842  27.6962948  65.7188416  11.4092064  28.2429528  64.9459743
  12.1910620  28.1803298  66.2404871  15.8388114   8.8305002  49.5983267
  15.8771920   9.4530106  48.8722134  14.9350882   8.8811272  49.9097013
  55.6810665  67.3534632  58.6636209  55.3288603  67.2806835  57.7765560
  55.0333166  66.9148731  59.2152452  61.5797281  38.3711004  51.2686777
  62.1538258  39.0958500  51.0209274  60.9638071  38.7558246  51.8922615
  17.9547393  19.5523107   7.9449272  17.8224969  18.9038086   8.6364388
  17.9465199  19.0432107   7.1343833  69.9966669  51.3093996  48.0749035
  69.2878723  51.9206524  48.2754230  70.7962465  51.7949820  48.2776785
  53.5143137  63.6717701  29.6113896  53.7575579  62.7557516  29.7454572
  52.7598333  63.6356449  29.0234351  33.6887455  55.3336096  41.1822367
  34.5543766  54.9334431  41.2645674  33.1421995  54.6459866  40.8018494
  27.5686836  10.1693976  20.3447604  27.7030993  11.1144328  20.2735329
  27.7269769   9.8376745  19.4609427  61.9405508  32.8910565  36.3507366
  61.0250139  32.6333785  36.4585876  62.3348904  32.7391386  37.2095990
  77.8472090   2.3093370  13.5099518  78.0005789   3.1897566  13.1670642
  77.0971918   1.9853528  13.0112159  55.3468943  70.5044937  56.6180468
  55.0520039  71.3813782  56.8637085  55.8052063  70.6299591  55.7871199
  24.1992283  53.1015635   4.0432888  25.1460719  53.2051468   4.1381067
  23.8397527  53.9561129   4.2815173  42.1162033  72.2902393  12.4768853
  41.6365576  72.7118492  13.1899202  41.6473722  71.4696169  12.3252046
   4.5190379  36.8371439  55.4602528   5.1506191  36.2466526  55.8709335
   4.7677526  37.7076244  55.7711172  25.6320691  39.2102504  62.3697281
  25.7260942  39.5971346  61.4992619  25.0133920  38.4903622  62.2463179
  57.3479223  58.6193562  55.0186300  56.5299511  59.0120411  54.7137547
  57.9748583  58.7970829  54.3174887  61.4795303  35.9686351  38.5438204
  60.5908251  36.0212612  38.1921577  61.4148331  35.3433728  39.2656875
  60.4682255  44.5168114  53.6129808  60.0136280  43.8377810  54.1114712
  59.7926569  45.1681232  53.4241915  51.4188671   4.6158639   9.5442259
  50.9609890   4.3372712  10.3372991  50.8058691   4.4251364   8.8342351
  64.1596127  47.9450512  33.8490438  63.5311604  47.7336931  33.1586742
  63.9079666  48.8208532  34.1420794  57.1382189  53.0111504  42.7798939
  57.3239422  53.7762594  42.2355127  57.4015713  52.2646618  42.2417164
  69.9864101  28.8117552  40.0572348  69.3580627  29.3835473  39.6162510
  70.1239347  28.0893588  39.4444847   4.3785590  74.6091700  56.5714550
   3.9679885  74.9425507  55.7736349   3.7573242  73.9638281  56.9088459
  74.4383907  43.8803434   7.5497532  74.2060709  43.9529181   6.6240144
  74.4248295  44.7817516   7.8714770  49.3487835  37.2519851  59.9589252
  49.1245604  36.6846347  60.6965351  50.2948809  37.3774862  60.0322437
  15.3288448  47.7072477  53.6728144  15.1727104  48.4003496  54.3142700
  16.1328495  47.9714727  53.2256079  56.7658806  69.6308184  32.2774291
  57.7206612  69.5733023  32.3136425  56.4684725  69.1759968  33.0654144
   2.7124381  59.2876530   0.4413099   3.4414777  59.1747475  -0.1685968
   3.1302187  59.4138718   1.2932253  61.7941093  48.7450933  50.7884979
  62.2288179  49.5915794  50.6849623  61.0206556  48.8028479  50.2275467
  57.3547506  26.9471860   0.3523932  56.9008112  27.7817154   0.2352258
  56.7890215  26.4473677   0.9409173  10.5688190  66.5685320  25.3052115
  10.7432675  67.0696831  24.5085645  10.5557179  65.6561184  25.0161481
   3.4683633  40.0066376  32.5955153   4.1967797  39.4089174  32.4270821
   2.6853114  39.4680953  32.4813581  70.2393961  18.3210409   3.2678002
  70.2222681  17.9387963   2.3904020  70.8972454  19.0142918   3.2142371
  78.3971262  62.1961069  19.5665860  78.8087702  61.3322639  19.5899606
  77.4599838  62.0131111  19.4994199  43.0501842  67.3710060  52.7855301
  43.9533043  67.2037983  53.0550528  43.1108332  68.1257057  52.1998835
  79.4372463  60.8515406  46.3948679  80.0851059  60.7844162  45.6934357
  79.0210962  59.9898958  46.4198065  19.8709166  63.3944225  54.7890902
  20.4487348  62.8804970  55.3532219  20.4558587  64.0035057  54.3384361
  61.8778086  49.6187401  57.4627256  62.1918869  48.9232111  56.8849516
  60.9246016  49.5333767  57.4441290  52.5282860  50.0631475  46.7425585
  53.3826351  50.1179695  46.3144112  52.4608946  50.8736420  47.2473288
  50.8974886  17.3521602  53.2570648  51.2756968  17.8191328  52.5119972
  50.1621103  17.8987288  53.5340405  69.6017170  69.7003078  63.6833858
  69.2506313  70.2899170  64.3507147  68.8307810  69.3899918  63.2084179
  49.4612455  48.3755398  53.6913490  49.0185976  49.1794348  53.4192371
  48.9495134  48.0608177  54.4365454  74.0921450  61.4405060  16.6198695
  73.6825323  62.1985006  16.2028646  74.8249006  61.2180710  16.0455644
   9.1161853  29.8381424  18.7723827   9.7769195  30.1435781  19.3939710
   9.4944429  29.0460038  18.3907139  21.2875509  11.0288239  49.4125986
  20.6333208  11.7263460  49.4535637  21.1734080  10.6441259  48.5435677
  43.2998323  22.5061011  15.5000961  42.9312611  22.6606512  14.6303260
  42.5766563  22.6833224  16.1016273   4.3993992  67.6369190  29.2811298
   3.6106062  67.1672678  29.5521784   4.1621587  68.0421305  28.4470129
  67.4598408  46.5780401   9.4723958  67.4192810  45.7180023   9.8906338
  68.0851650  47.0726919  10.0020409  12.1401536  63.6407566  59.8593521
  12.2477722  62.7973223  59.4197321  12.4180973  63.4782028  60.7607698
  13.0921066  51.8042803  44.4473553  13.3358490  52.6588106  44.0915442
  13.1543696  51.2076521  43.7014389  36.4845204  35.3368020  23.6153603
  36.4645767  34.3864799  23.7281585  35.9696412  35.6757712  24.3476367
  66.3650322  31.9529796   8.3539069  65.9317160  31.7054582   7.5370830
  66.6480350  32.8561163   8.2107747  54.5354271  51.5300512  13.9086795
  54.1610670  50.6532860  13.9944673  54.3092346  51.9683838  14.7290051
  50.6015873  66.3054132  45.6039238  51.0596848  66.1102676  44.7864294
  50.4844427  67.2553396  45.5919600   8.0253679  31.6110349   2.9840121
   7.7837944  32.4778271   2.6576024   8.0311120  31.7067814   3.9363939
  16.2995040  42.1901512  49.9822950  16.1499047  41.2485313  50.0671816
  17.2482657  42.2743416  49.8874521   8.7882411  55.7936716  44.4254160
   9.1953278  56.6186237  44.1609049   9.1264522  55.1494503  43.8034678
  44.2703152  53.8277292  45.0109673  43.4944677  54.0890646  44.5149803
  44.9996424  53.9709520  44.4078112  68.7916231  65.8673763  31.0811234
  69.5951653  66.0615110  31.5636849  68.0869770  66.1166191  31.6791058
   9.9445295  31.7326498  28.4426689   9.9532741  31.4538479  29.3583226
   9.4619942  32.5593042  28.4486008   0.9565464  42.9172277  35.4151201
   0.3020729  43.6116552  35.3398180   0.6242991  42.3493385  36.1103511
   7.7364886  74.5330143  19.1450906   8.0736601  73.8261747  19.6954763
   6.8482798  74.6850300  19.4679034  34.9892902   4.5894271   8.4812331
  34.2296314   4.5162511   7.9034817  34.8089099   3.9753526   9.1929972
  65.7650471  37.3719954  60.2482748  64.8722506  37.2838902  60.5820274
  65.7417727  36.9522929  59.3883085  55.8504725  68.4987688  29.5139050
  56.3513041  67.8669882  30.0299001  56.5090227  69.1011047  29.1678858
  58.9331961  56.1869478  62.8479290  58.5127497  55.6454134  63.5159063
  58.9486170  55.6344032  62.0664644  52.5991106  11.1526299  22.3893785
  51.6536856  11.1451435  22.2398949  52.7956915  12.0567894  22.6344967
   3.3832058  12.6377320  23.6011052   4.1800189  12.8268242  23.1055617
   2.8465921  12.1180534  23.0025983  66.2474489  46.4162254  60.7676888
  66.3981628  45.7563972  61.4445543  65.5377007  46.9569969  61.1141825
  48.8253927  57.0647001  42.6763964  49.4535303  57.2317886  41.9737196
  48.7731171  57.8931952  43.1529427   4.5361599  65.5840015  37.4897194
   4.3249136  66.2418795  36.8272948   4.1780701  64.7681904  37.1397901
  46.5671968  75.2511930  18.1360912  46.6085291  75.8554554  17.3948824
  46.4748955  75.8177137  18.9021003  32.8894711  52.4333239  40.7519627
  32.9328012  51.7832851  41.4532518  32.3929191  52.0023870  40.0562906
  46.2258196  56.5979338  40.8694410  45.8417702  55.7633352  41.1381197
  47.0964241  56.6000843  41.2672758   0.7180626  59.2442131  38.3089256
   0.0617275  58.5516644  38.2325935   1.0191459  59.1899490  39.2159176
   5.1768929  61.1112070  13.6100578   5.3651011  60.7289028  12.7529383
   5.7098109  60.6027317  14.2213523  42.4506283  71.6959381  50.8147144
  42.6510811  71.0050344  51.4461422  42.9367781  72.4575615  51.1306620
  19.5533097  36.5153432  46.1225414  18.9837825  37.1857500  46.4999342
  20.4123616  36.9339871  46.0677671  46.6347265  60.1325083  29.5873165
  46.8723488  59.9573135  30.4978514  45.7278824  59.8348236  29.5149088
   1.6681506  28.7612200  40.4145432   1.4657508  28.8708687  41.3436508
   2.1724591  29.5418930  40.1855135  62.7538109  70.5951023  47.0769262
  63.4602022  70.5980158  47.7228642  62.7784967  71.4707327  46.6910553
  68.3545160  63.2811165  56.8986320  67.6757336  62.6062250  56.9012499
  68.4914637  63.4866667  57.8234148  54.9735308  11.1161506  67.4171591
  55.8098888  11.2366819  66.9674873  54.5428467  10.4092646  66.9364738
  29.2792678   5.9557545  53.4059906  28.4437299   5.7322580  53.8160610
  29.4998884   5.1883173  52.8781652   2.0669375   0.7215716  64.8722506
   1.2761509   0.3144965  65.2260542   2.5494045  -0.0012335  64.4709873
  53.3091736  51.1728239  27.8323936  53.0182219  50.6619215  28.5877466
  53.0720949  52.0748663  28.0476785  33.8239837  12.5622857   8.6473274
  33.1276202  12.7003384   8.0052602  34.3008518  11.7983460   8.3229434
  26.2684965   7.9963100  44.9365568  25.3965521   8.3911651  44.9305487
  26.8586302   8.7154293  44.7110796  51.1715984  14.1471732  21.0125709
  51.6318655  13.7250519  20.2871752  50.2655458  14.2184901  20.7122231
  81.4745712  70.4941988  51.8728733  82.1837425  69.8543501  51.8103695
  81.4524841  70.7376194  52.7983379  79.0450096  36.6477084  11.3690877
  79.1517544  37.5922656  11.2566137  78.3568001  36.4088297  10.7481754
  28.2186818  11.3215017  30.7012558  28.5993338  11.4106333  29.8275328
  28.7906718  11.8413651  31.2658811  66.1352777  14.7289503  12.4863148
  66.9194412  14.7369862  11.9374454  66.3677120  15.2657902  13.2439482
  20.5718923  61.5523434  21.1654067  21.0603213  62.2377729  20.7094932
  20.2848196  61.9644356  21.9802690   2.7329910  34.9183488  67.0135164
   2.1457502  34.2341423  66.6922045   2.1610311  35.5212998  67.4884319
  25.0427794   6.8052304  18.4445119  24.4817996   7.3030943  17.8498137
  25.3236842   6.0478532  17.9309905  71.6719913  66.9438696  54.9407005
  71.9029284  67.0773506  55.8599806  71.7491293  65.9988928  54.8091459
  15.8395112   2.4876738  62.8793240  16.6791427   2.3109314  62.4550438
  15.2078736   2.5098494  62.1604538   5.2129495  76.3190937  15.8027971
   4.9905005  76.9061756  15.0802445   6.0394043  75.9154558  15.5376923
  40.4531145  29.4402313  32.1381021  40.7532263  28.6145926  32.5182152
  40.7068825  29.3859744  31.2167501  26.3088107  72.8702402  30.2071238
  26.3338089  72.5425720  29.3080997  25.3761292  72.9477453  30.4079485
  23.4218502   5.3469253  45.9233332  24.3301296   5.2461499  46.2081242
  23.1781816   6.2279856  46.2072182  45.5148554  70.8222628  52.8317928
  45.7605934  71.0342503  53.7322950  46.0238981  70.0390816  52.6226616
  74.6044254  67.1285391  46.4055729  75.1118088  67.3461533  47.1875238
  75.2287102  67.2101974  45.6845808  79.9473953  18.4779942  28.3443689
  79.5407009  17.6199305  28.2237101  79.9209833  18.8798082  27.4759912
  31.4975905   4.5242777  24.4174695  31.6556621   5.4672188  24.3715620
  30.7398415   4.4363195  24.9956632  45.1848984  73.4999084  55.0699377
  45.5756521  72.6307726  54.9796677  45.3191996  73.9126778  54.2168140
  47.8868961   2.8858131   6.3883972  47.2380543   3.3144778   5.8302957
  48.0305147   2.0333321   5.9774446  34.7130394  15.8556879  55.6128168
  34.1021371  16.5767717  55.4609299  35.4263711  16.2481129  56.1161995
  54.9265480  47.0456505  61.7747593  54.8783159  46.2760878  61.2075901
  54.5778322  47.7591991  61.2404585   5.1311940  57.1503687  60.8221436
   5.8880025  57.3811769  61.3608503   4.5980489  57.9451609  60.8050394
   4.0122318  58.3165932  57.4831581   4.5341939  57.5790071  57.7989960
   4.0078196  58.9365721  58.2124329  80.1304150  15.8372605  67.1997976
  80.1250553  16.0673451  66.2706757  79.2618942  15.4682386  67.3601770
  15.3116298  70.6016111  38.1502485  14.4020247  70.5529404  38.4443259
  15.2530646  70.6380701  37.1955395  45.4190540  60.0482559  38.1479025
  45.9765720  60.4260492  38.8281083  44.8188639  59.4729805  38.6223054
  47.0448303   2.9669917  41.3430309  46.8109417   3.7479302  40.8413696
  46.8196630   3.1867117  42.2470522  58.9063025  73.6877394  49.9711609
  59.7413015  74.0347576  50.2851486  59.0739918  72.7569389  49.8237896
  36.4815950  70.6118774  35.7412481  35.8713508  70.3188944  36.4179993
  35.9584332  70.6331635  34.9399495   4.0871862  40.3291512   3.5456377
   4.5116022  39.5945168   3.9888275   3.1650963  40.2572870   3.7922502
  74.6890831  61.2502670  64.5008898  75.6289625  61.3640785  64.6419764
  74.6294022  60.6433153  63.7631369  21.7578077  45.9477568  43.4258986
  20.9789777  46.4790249  43.5914612  22.3924088  46.2430620  44.0788221
  34.4522333  36.7268801  59.3559122  33.8244152  36.6013074  58.6443615
  33.9117002  36.9315290  60.1189184  43.1224823  35.1586246   9.5033139
  42.3170900  35.1719713  10.0204194  43.8206196  35.0553799  10.1499772
  72.8735685  64.4258356  26.3053823  72.6563978  64.6033239  27.2205687
  73.8184357  64.5691347  26.2512970  13.9883471   5.8695900  35.2207065
  14.8853350   5.6791502  35.4952550  14.0437126   5.9631890  34.2697024
  14.6589899  70.5773354  52.2847176  14.3740129  71.2734604  52.8766918
  14.2059910  69.7950029  52.5993347  16.9822562  76.0280323  52.1819544
  17.6525819  75.3622293  52.0283365  16.3208175  75.8613825  51.5104246
  67.9582262   6.4152747  29.7674251  68.8017035   6.4433086  29.3157697
  68.0329561   7.0763552  30.4556251   8.7405276  21.1424637  37.0755887
   8.3943021  21.4992023  37.8935719   9.3690133  20.4755759  37.3521733
  10.1374292  48.9488840  30.3820229  10.0094211  48.9810133  29.4339657
  10.7421422  49.6675634  30.5665517  63.8023567  16.2767482  37.1996546
  63.4362650  15.6921697  36.5359712  64.5079327  15.7702744  37.6020002
  48.2229376  13.7824869  32.4088240  47.5064182  14.4157732  32.4509645
  48.2382441  13.4986019  31.4948177  63.2208586  76.8240452  58.4256983
  63.9085770  76.6879797  57.7739573  63.6467838  77.3230124  59.1227293
  77.8777838  75.5304861  19.6305048  77.3730516  76.1430073  19.0954387
  78.5367632  76.0752010  20.0609231  52.5867605  34.7871232  62.7475977
  52.5033808  34.5158386  61.8334389  51.9119740  35.4564238  62.8613138
  57.5666523  26.9124889   7.9870206  57.7698898  26.0906291   7.5403965
  58.3871984  27.4049878   7.9674560  14.5611060   6.1205763  40.1958704
  15.0374150   6.9317055  40.0185776  15.2073002   5.4281652  40.0571871
  60.5761290  65.2333927  33.3714771  60.0921965  65.5728006  32.6185870
  60.0663996  64.4773912  33.6628056  19.8309219  17.1983266  32.1393919
  19.2724681  17.9745305  32.1826077  19.2186737  16.4625394  32.1381927
  73.9266586  62.1671677  28.2250643  74.5118332  61.9046307  28.9356089
  73.1896830  62.5902128  28.6656618  49.3048096  65.1521397  28.9616656
  48.8205147  65.5317879  28.2284856  48.6382914  64.7045469  29.4828582
  28.3754206  53.6294651  39.6537471  28.3616710  53.8686085  38.7270045
  28.2697964  54.4603491  40.1171064  81.7851543  75.6441355   3.2097286
  81.5263939  75.5737019   4.1285932  81.0539150  76.0963154   2.7889580
  36.1321354  28.9746070  29.7543216  36.3566661  28.9064670  30.6823182
  36.9468808  28.7706447  29.2951679   8.4008890  75.8682728  32.2253370
   9.2241216  76.2009621  32.5828791   8.4709960  74.9172020  32.3076725
  10.5538821   9.5286548  34.1019082   9.7710907  10.0671172  34.2182207
  11.1774099  10.1048386  33.6598039  41.6814804  65.4004478  54.5899630
  42.0602083  64.7242641  54.0282059  41.9910908  66.2247515  54.2146015
  18.9962530   4.9313623  49.8421097  18.7972736   4.3209547  49.1321516
  18.2254124   5.4963446  49.8953152  51.6839314  37.9032874  50.3122807
  51.5754366  38.6079669  50.9509420  52.4678898  38.1454277  49.8193216
  76.8199921  75.2560568  39.6672273  76.6885996  74.7319984  38.8770819
  75.9545612  75.6150103  39.8632169  36.8760157  74.2379141  61.0598421
  36.6708446  75.0171852  61.5764332  36.5288877  73.5102558  61.5758371
  18.1756437  50.1309156  46.1942244  18.5667181  51.0045052  46.1825609
  17.8506863  50.0258875  47.0884323  67.5134277  17.7457166  31.5507793
  66.9878387  18.4625661  31.9059014  67.7930927  18.0573595  30.6900263
  70.2315092  19.9514306   9.1508704  70.2394772  19.5489621  10.0193107
  71.1554718  20.0894237   8.9423478  57.7731848  65.1450062  24.7391510
  57.5142050  64.3238020  24.3210816  58.0148602  65.7182980  24.0117145
  17.1546972  31.8310142   2.6898009  16.5605164  32.5636768   2.5273585
  16.7300153  31.0812688   2.2729586  13.1835914  11.1776316  45.3414536
  14.0511072  11.5777552  45.4010344  13.1836164  10.7306457  44.4950294
  67.8197384  73.4162521  10.4785287  67.2415304  74.1677523  10.6095016
  68.4074068  73.6863232   9.7728783  70.0918341  74.6935034  40.2575636
  69.7044945  73.8961315  40.6186771  70.0114679  74.5906162  39.3093109
  20.3840661  55.1969481  50.5106449  20.6060505  55.7316637  49.7483873
  21.1302137  54.6064234  50.6144571  81.9859695  36.0946751  46.2181187
  81.7304611  36.9646025  46.5249920  81.7072868  35.5027938  46.9168615
  19.6460891  24.7538996   3.3451426  19.4742513  24.1680527   2.6079270
  19.0569711  24.4494200   4.0354058  53.6430216  58.8518953  32.5638890
  53.5165930  57.9071236  32.4764132  52.9952765  59.2359495  31.9729877
  14.6691608  38.2837176  15.9315431  15.5430412  38.2075334  16.3146353
  14.0727735  38.1820917  16.6733158  14.4757664  22.5639892  54.6092463
  14.2722535  21.9529438  53.9011240  14.8063815  22.0097971  55.3162098
  19.0616632  13.2974923  36.2485743  19.8341310  13.4248435  35.6978416
  18.7305832  12.4342132  36.0008526  32.2307277  23.4234333  16.6868949
  31.7737675  22.6003528  16.8599761  33.0455685  23.1597018  16.2594461
  36.4145541  42.0078373   9.4207275  36.7111039  41.2607431   9.9404818
  36.0892940  42.6349449  10.0666153  78.2453585  65.2693319  52.5671768
  79.1541243  64.9905014  52.4547958  78.3087683  66.1691189  52.8874826
  67.6646948  53.5345411  23.3335376  67.7058697  53.9943838  22.4950385
  68.1749821  54.0806723  23.9315176  22.0295906  75.4981279   3.8453382
  22.0742393  76.3686657   3.4498608  21.4874578  74.9888754   3.2428551
  79.4497824  47.1558094  16.8744302  80.0274754  46.7293262  16.2414896
  79.5133686  46.6131210  17.6603532  75.7830858  40.8376598  30.3002214
  76.5546417  41.1078072  30.7981706  76.1077261  40.7029009  29.4098949
  22.2946501  12.5759423  31.2263250  21.6838145  13.0367041  31.8014860
  22.7110481  13.2693601  30.7144499   3.0795696   8.5810924  58.1788063
   2.5355273   7.9599613  57.6946115   3.9222085   8.5659140  57.7249765
  78.0632114  41.9144011  38.1287408  78.0148506  41.0611343  37.6976633
  78.0235767  41.7129993  39.0636730  51.1705494  65.3144979  38.5424876
  51.3358116  65.7570124  37.7099609  50.7559729  64.4876719  38.2960868
  40.7945490  34.5882511  13.0619001  40.7354164  34.2681956  12.1617329
  41.5862751  34.1783643  13.4103119  46.1239576  18.2573259  23.6295557
  45.9923220  19.0886879  24.0853405  46.6970396  18.4752870  22.8945017
  10.9990621  33.3696461  60.3345156  11.1687982  33.2094884  59.4061995
  10.1082373  33.0484009  60.4740238   6.2644225  74.7883320  45.3144693
   5.7330078  75.4728413  44.9079180   7.1636915  75.1079607  45.2410746
  57.6901293   4.4245952  15.7613897  57.6370716   5.1156300  16.4216077
  57.0724487   4.6946421  15.0818491  63.8000059  55.8816051  19.3689859
  64.2943573  56.6999722  19.4150817  63.1002331  55.9878778  20.0133896
  23.1920099  64.4464731  42.6729727  23.3295393  65.0699091  43.3861685
  23.8109803  64.7176886  41.9950724  52.1176100  66.9361353  43.3492327
  52.1139479  67.8578281  43.0909634  51.8343639  66.4664555  42.5647545
  62.3125648  76.4058733  49.1775656  61.7458868  76.6915989  49.8941326
  61.7116880  76.0409117  48.5279655  73.8100100  24.6130013  17.3214459
  73.4201193  25.3112292  17.8474641  73.3740187  23.8153386  17.6212490
  24.6007252  33.8113332   1.9541334  23.9501953  34.3185544   1.4685737
  25.2941036  33.6388683   1.3171765  66.6232920  73.5860586  61.8794107
  66.5845680  74.1281605  61.0914660  66.6674232  72.6882267  61.5504980
  50.0547647  72.7539730  35.6906581  49.9821663  72.1102810  34.9859428
  50.6312180  72.3411274  36.3336921  19.8679256   6.8955743  37.5766635
  19.8437548   5.9661800  37.3489070  18.9665103   7.1059597  37.8204250
  10.0477529  53.8495636  56.2988806   9.7113395  53.1787014  56.8930197
   9.7015744  53.6048508  55.4406834   5.1909715  54.5607710  27.3494291
   4.4129652  54.1773510  26.9445539   5.1120609  54.3390846  28.2772541
  67.7735043  37.9803300  31.1805415  67.6814699  38.9101410  31.3884258
  68.6593723  37.7574968  31.4665723  76.3613701  46.3467073  26.5487957
  77.0849848  46.0919666  27.1212649  76.7307568  46.3129520  25.6663847
  13.1972098  40.8155346  14.3994927  13.8915193  40.8199120  15.0583911
  12.9898965  41.7401218  14.2638612  26.8686771  14.3072951  50.4902124
  26.4699936  15.1768029  50.4550028  26.2150741  13.7280738  50.0983763
  72.8638315  57.0863390  63.0921078  72.7856159  56.4049530  63.7598085
  73.0911827  56.6126633  62.2919989  75.0787640  65.0219727  60.1065397
  74.4846249  64.3158484  60.3607512  75.8041954  64.5781136  59.6672583
  17.0925200  14.6277177   3.5770643  16.9953573  13.8058877   4.0580907
  18.0387521  14.7567272   3.5119972   0.9839962  58.0876684  30.3401375
   1.0772872  58.9878893  30.0284863   0.0414444  57.9225206  30.3165889
   9.1621238  40.4818201  56.0678434   9.8873758  40.6719303  56.6629076
   8.9519501  41.3261938  55.6689692  50.1072216  55.1416016  15.2676201
  50.3222942  55.6003428  16.0797334  49.3071318  54.6570778  15.4709041
   0.3819841   1.7473634  47.3143435   1.0652701   2.4104828  47.2162390
   0.6107517   1.0715098  46.6762877   9.1043830  23.2688761  44.1225767
   9.3287444  22.4258661  44.5165682   9.5604509  23.2688975  43.2810116
   7.9529607  41.3850069  66.2585783   8.8295335  41.6954041  66.0316277
   7.3629844  41.9380522  65.7464218  38.5505152  12.7157128  22.3128486
  37.6340818  12.9891360  22.2725677  38.7899995  12.8156483  23.2342029
  21.4913464  74.5533609  44.9638414  21.8262148  73.8771820  44.3748760
  22.0123482  75.3295660  44.7581816  19.5285833  69.4841576   7.2545296
  20.1978254  68.9320993   6.8500829  18.8141358  69.4998932   6.6177016
  33.2036042  16.1667788  14.1679120  33.8977051  15.6177509  14.5326376
  32.3938084  15.7872486  14.5091140  54.5331240  40.4143810  39.8493290
  53.5934448  40.2637053  39.9519610  54.5973349  41.3104725  39.5189738
  61.9363594  65.7525158  36.3036680  62.7422142  65.2403021  36.2368536
  61.3404512  65.3445339  35.6754327  27.7487659   6.4104229  46.5135908
  27.6473689   5.4599476  46.4631271  27.1394587   6.7513925  45.8588219
  59.6594381  31.2331533   6.7272657  60.4378033  31.3720322   7.2667915
  59.8661661  30.4592276   6.2033057  10.8911943  76.7101526  25.9958720
  10.7907355  76.3450050  26.8749666  10.7640684  75.9635925  25.4104519
  81.4373398  17.3234177  37.8437304  82.3723984  17.3660576  37.6435399
  81.3934135  16.8750107  38.6882615  74.6825457  72.5498152  34.3777561
  75.0178003  71.9240475  33.7356901  73.7306976  72.4705410  34.3150711
   7.8038275  68.5462523  15.2797091   7.7558804  67.8647232  15.9501219
   7.1639472  69.2014694  15.5580544   0.7056236   4.3114832  54.2607260
   1.0222997   4.0540120  55.1265526  -0.1926804   3.9826602  54.2267084
  57.7643585  19.2609394  30.2432942  57.4900341  18.7296784  29.4958067
  57.3526955  20.1124334  30.0958991  17.9170346  77.0250177  58.0349636
  17.8237593  77.9716539  57.9281759  17.0671237  76.6697454  57.7748442
  25.0194931  10.5830133  34.3713284  25.9018421  10.5984962  34.7420716
  25.1170897  10.1185620  33.5400677   7.1772563   8.2986146  23.5932159
   7.1584374   9.0398741  22.9878950   7.7487552   7.6580530  23.1697750
  42.8689146  10.6742823  15.6900799  42.1507931  11.1971629  15.3335333
  43.0379534  10.0114286  15.0205398  61.7645645  64.9768496  21.9275165
  62.4654388  65.3589916  21.3993359  61.0755014  65.6412506  21.9279170
  58.2795334  12.2327054  25.1504612  58.0915928  11.6171956  24.4419003
  57.4225712  12.5766563  25.4025435  27.6383138   6.7570657  49.1553640
  27.7432609   7.0841688  48.2619333  26.7629814   7.0449096  49.4145346
  12.0571411  32.6624274  31.7924762  11.4081609  32.1064186  31.3613009
  11.8172634  32.6364255  32.7187681  38.0055499  -0.0766141  10.8382607
  38.4148002  -0.0156992  11.7014146  37.2055650   0.4433165  10.9152591
   8.3631468  21.3151193  21.2818146   7.4433279  21.3210583  21.5466356
   8.5204369  20.4196310  20.9824967   7.9469872   8.1410605  12.4595106
   7.4825585   8.9125466  12.7840829   7.4775940   7.8969151  11.6618299
  36.1777043   7.9900283  54.4055843  35.2496719   7.7737695  54.3149376
  36.2123513   8.5887468  55.1516199  25.3463173  70.4922533  11.1492074
  25.7124019  69.6210194  10.9970176  25.8932710  70.8643818  11.8410122
   8.9211482  61.6613960   5.9102559   9.3036515  62.5081682   6.1402631
   8.9005631  61.6598940   4.9532783  41.2018728   3.6405537  38.0709863
  42.0562220   4.0553391  38.1904602  41.2086582   3.3351469  37.1638417
  68.0629635   2.2052857  31.4198899  67.2385502   2.3560762  30.9574652
  68.2327986   1.2699565  31.3078809  25.4072833  31.9913626   8.3630073
  25.6945992  32.7200484   8.9131862  26.1708426  31.4166808   8.3086944
  47.6687002  19.0687847  16.3940847  46.9914198  18.4163845  16.2154734
  47.5013018  19.7672129  15.7613063   7.1658498  74.6587515  48.0859709
   6.9999063  74.9457741  47.1880198   6.5323818  73.9565659  48.2339048
  29.6456742  61.6880131  29.1210508  29.8246050  62.5049067  29.5867777
  29.1993523  61.9619322  28.3198023  59.9611616  23.1453848  14.9685109
  60.7040405  23.1547713  15.5720639  60.3356695  22.8693175  14.1319931
  50.1832819  21.3685822  28.6847234  50.3981686  20.4557753  28.8766575
  50.9886837  21.7319345  28.3165765   9.1213560  72.4539375  20.4759121
   8.7305820  71.8972301  19.8024118   9.7867250  72.9612112  20.0109529
  12.3740888  65.6657696   7.3497027  13.0404103  66.3355446   7.5034910
  11.5484977  66.0919476   7.5799280  30.0883508   9.9790710  25.1281595
  29.7307849  10.6156290  25.7471704  29.5200562   9.2138982  25.2163863
  17.2198224  64.8087311  27.7122402  17.7343833  65.3672457  27.1295571
  16.4316392  65.3188801  27.8986502  44.7407532  36.0441661   5.7260096
  44.6227646  36.2769961   4.8050863  44.8931408  36.8800735   6.1667681
  62.0349216  68.9723492   0.6815451  62.1983910  68.3400202  -0.0182183
  61.0811186  69.0088701   0.7533582  29.3618655   4.6920958  26.0094619
  28.4655094   4.5424986  25.7087994  29.5398974   3.9632455  26.6038632
  49.9038219   3.4508583  16.3586557  49.8086548   4.3712449  16.6037345
  50.7700825   3.2049122  16.6832113  72.1828842  75.8291578  13.7361336
  71.3464260  75.5176115  13.3904338  71.9787931  76.6783762  14.1278076
  58.8410997  15.7244718  52.3121691  58.5505247  16.1835253  51.5240908
  59.7588968  15.9773040  52.4119520  27.6119137  34.6360779  54.6538162
  27.4929237  35.5277967  54.3268442  27.5330305  34.0833592  53.8763094
  51.2327909   3.8744915  49.8211002  50.7495165   3.5739359  50.5907393
  50.9090996   4.7619396  49.6665287  75.1249027  24.5071340  23.8232160
  75.3963041  24.6077681  22.9108310  74.3002987  24.9895835  23.8824153
  47.3958492  44.4761038  58.4470129  46.7959309  45.2142429  58.3398771
  47.6369429  44.4958782  59.3731403  30.1623607  61.8566513  52.0917034
  29.8098207  61.5826511  51.2450171  31.1120057  61.8377924  51.9731712
  13.0633795  22.2872162  15.5413079  12.7349353  22.0694733  14.6689868
  13.1248212  23.2424402  15.5425549  34.4641161  32.9359031  25.5271649
  34.0380025  32.5760627  24.7492361  35.4005957  32.8517604  25.3478312
  67.2949791  29.1874003  55.2455568  67.2971821  30.0087285  55.7371330
  68.0820465  29.2311454  54.7025585  37.1877742  26.2951112  36.6913986
  36.8240476  25.8613753  35.9195137  38.0347991  25.8706403  36.8277979
  75.1185083  10.9081531  37.7945256  75.1425886  11.4123952  38.6077857
  74.6719360  10.0949323  38.0300641  34.8765564   9.7749084   8.2022607
  34.0460277   9.6158016   8.6507452  35.0997043   8.9328426   7.8055710
  65.2410364  12.9835904  22.1469307  64.8118687  12.5121760  22.8609443
  65.9406805  12.3971331  21.8591738  33.4072542   0.9356418  45.1991510
  33.8884258   1.4377648  45.8568573  34.0120983   0.8670478  44.4604445
  27.1740174  64.5732355  33.6430144  27.6328349  64.9780464  34.3791175
  27.8683305  64.3417120  33.0261183  53.3042145  23.5822582  13.7307000
  53.3989048  23.7929320  14.6596146  52.8385592  22.7460146  13.7210202
  51.7469311   3.3047223  26.0742903  51.0960197   3.5899389  25.4330420
  51.8932676   4.0736413  26.6252708  44.5007086  71.6365576  13.7902117
  44.0839434  71.2791014  14.5742798  43.7819576  71.7530537  13.1688762
  31.3655782  72.5884581   2.1312504  30.8374667  72.5258827   1.3353768
  32.2507763  72.7732611   1.8173984  54.6817970  58.9117241   7.8410751
  54.9776268  58.5496378   7.0058447  55.2013206  59.7076225   7.9545391
  43.9291668  17.6526487  42.8302479  43.2256079  17.0897210  42.5072241
  44.6740103  17.0626628  42.9458427  49.2462111  19.6032691  23.6628795
  50.0210714  19.0724027  23.4784961  49.0851736  19.4753814  24.5977306
  39.0000105  60.5139637  27.3960018  38.8022852  61.3408995  27.8356814
  38.2399654  60.3521633  26.8370891  75.4616213  57.2944307  53.2083225
  76.1995602  57.9038286  53.1906557  74.9789953  57.4792862  52.4026346
  29.1384292  75.6883860  48.1409788  29.0843153  75.7275295  47.1861124
  28.6443543  74.9032307  48.3768892  17.3103201  67.1702003   1.1788136
  18.1982207  67.4360466   1.4179517  16.9839466  66.7049980   1.9490746
  44.7427464  13.2981646  36.9138312  44.8600626  13.4536827  37.8509974
  45.4982758  13.7200093  36.5046191  12.2352076  12.0454931   3.1815684
  13.0657589  11.7781186   2.7879614  11.8268514  11.2255430   3.4593427
  22.7615619   9.1184354  23.7932777  22.6268339   9.1079539  24.7408915
  22.8616738   8.1966901  23.5553813   8.6325419  12.1694684  13.6038089
   8.9969164  11.5845311  14.2681217   8.8552290  11.7539966  12.7707267
   3.1386647  41.4142418  17.6289332   2.4065585  41.0007811  18.0864286
   3.1377974  41.0101366  16.7612171  47.1847439  24.7014141   8.0372369
  46.3784742  25.0938869   8.3720970  47.7518606  25.4477477   7.8433490
  75.7565260  12.6758301  24.0283561  76.7008781  12.5868607  23.8998604
  75.5206490  11.9376123  24.5901632  48.1747532  62.3762846  50.5235624
  47.4478245  61.7606688  50.6174994  47.7649260  63.1862974  50.2199888
  56.5006447   4.1460732  52.7421474  55.9118652   3.8321316  52.0558453
  55.9189606   4.5183423  53.4049368  32.1862364   0.6523436  13.9837897
  31.3714600   0.7010733  13.4837937  32.0625567   1.2704733  14.7041023
  72.8906488  48.4327412  33.6307383  72.2210121  47.7499390  33.6706948
  73.1926775  48.4191513  32.7225399  34.2448497   1.0399196  42.1844387
  34.3555236   1.5558331  41.3858032  35.0862288   1.1125730  42.6350307
   8.4611279  15.8305156  11.8438053   7.6428813  15.5482125  12.2524738
   8.9224696  16.3057828  12.5348306  66.2054586  69.1917372  39.4323134
  66.5179825  68.3487129  39.7607565  65.8560705  69.6352959  40.2052402
  71.3118696   7.6932502  22.0275855  70.8874989   7.5122577  21.1889052
  71.6715622   6.8494064  22.3010468   1.5709756   1.5127076  53.1635237
   0.8655385   2.1492296  53.2794094   2.1789441   1.6959161  53.8797903
  51.0443974  23.9865613  16.4275336  50.6868410  23.9235401  15.5418634
  51.9925117  24.0227389  16.3010478  27.0535111  34.4222116  13.5206747
  27.5043750  34.2271972  14.3422103  27.7503276  34.6956778  12.9241073
  13.8574100  74.3692112  26.4401746  13.3995271  74.0848255  25.6491637
  14.0787578  73.5561323  26.8941998  12.8183043  16.5528560   1.3054019
  12.7329397  16.9204891   0.4257487  13.5998738  16.0021114   1.2600094
  34.9858928   9.3905312  19.9457026  35.9279251   9.3201417  20.1001477
  34.7877717   8.6737549  19.3430316  41.5579176  17.7866507  28.5106421
  40.6210756  17.8762388  28.3359146  41.8852043  17.2468090  27.7911377
  39.6095324   3.7279484  40.4377174  39.7389603   3.8870776  39.5027518
  40.3159094   3.1286275  40.6787062  79.3201685  76.8539190   4.7231218
  79.2718792  77.7120876   5.1443648  78.5635662  76.3768673   5.0640094
  48.9949942  40.8510733  65.3119469  49.6806860  40.6495190  64.6752119
  48.9957142  41.8064880  65.3703499  18.9003360  61.4999533   1.4247040
  18.8873398  62.1326303   0.7065214  18.2790637  60.8222961   1.1581928
  40.2813482  73.8210297  39.1629791  40.8343220  73.8025522  39.9440765
  39.8270249  74.6621704  39.2110014  81.8983173  33.1563282  11.6724324
  82.6095009  33.2028317  11.0334563  81.1005497  33.1584525  11.1434686
  41.7629719  59.9415493  47.9076147  41.5402031  60.8622313  47.7699423
  41.4106369  59.7368050  48.7737370  75.5982685   3.8183731  53.5973644
  75.0514984   3.3381525  54.2191887  74.9789619   4.1800028  52.9633951
  21.7219353  58.5706282  11.3023651  20.7652378  58.5893822  11.2777162
  21.9685292  59.4167042  11.6759670  47.9383850  68.5095978  33.7453151
  47.6475382  69.1639709  33.1101441  47.7987719  67.6707268  33.3059549
  66.7530346  28.7039185  36.9299984  66.0689211  28.0493474  37.0705485
  67.5504875  28.1918454  36.7955399  34.5303607  29.4059467  20.3200102
  34.1588545  29.6095824  19.4616687  33.8404036  28.9184809  20.7700849
  28.0625224   3.1910121  54.7719145  27.4664617   3.8831171  54.4856787
  27.7642131   2.9674682  55.6535435  30.8533907   6.3160050  31.7433572
  30.3263807   5.5565119  31.9916749  30.5549693   6.5364444  30.8609843
  35.3819108   3.0823120  55.2580547  36.3062000   2.8341752  55.2767706
  35.3446102   3.9041939  55.7472897  45.8973598   3.0797592  32.4934220
  45.7210875   2.9179567  31.5666103  46.0266161   4.0264463  32.5509310
  29.5964980   4.1993925  39.3286729  28.7181878   4.1748229  39.7084117
  29.9913454   4.9931750  39.6895552  69.2797661   8.5702634  43.2250261
  69.4007206   8.8588876  42.3204279  68.4661674   8.9904898  43.5037613
  56.3862801   0.9896409  20.3706384  57.1395159   0.6889395  19.8622680
  55.9081888   1.5646455  19.7731185  20.7229304  72.8453350  47.0470476
  19.8310721  72.6364183  46.7692423  20.9731627  73.5941362  46.5058327
  68.4456587   7.9591846  62.3724461  69.0166330   8.3445024  63.0370855
  67.7796841   7.4877691  62.8729248  38.0840278  12.3704779  17.5143170
  38.9973259  12.1657073  17.7147937  37.7484083  12.7759135  18.3138239
  14.1130126  28.6997652  26.7497563  13.7788379  27.8693748  26.4106250
  13.3448935  29.2697024  26.7871332  42.1001816   1.7692241  58.3754444
  41.2540007   1.5410410  57.9905510  42.1468496   1.2484515  59.1772270
  12.0267510  61.4249754  41.6718197  11.9902909  60.8515739  42.4374008
  12.9419708  61.3944960  41.3931179  60.4527998  11.1866832  27.6127958
  61.2250423  10.7672918  27.2333479  60.6047869  12.1237993  27.4905491
  55.9979486  56.6121340  52.0019245  56.7985725  56.4773035  52.5089264
  55.2898550  56.4233541  52.6177168  18.6661112  72.6700735  64.9578619
  19.2592990  73.2789278  65.3979206  17.9517865  72.5388336  65.5813599
  26.0284615  19.1862166  48.3538485  25.8454370  19.8771763  48.9904881
  25.6543541  19.5102310  47.5345230  14.8570657  12.6752865  64.7289133
  14.3484104  12.5613868  65.5317402  15.1063609  11.7866230  64.4752169
  48.3308077   2.7565286  14.3040824  48.0803680   3.6801812  14.3234897
  49.1414452   2.7174520  14.8115981  76.6291380  60.0750971  21.7913795
  76.1324263  60.8798838  21.6436267  76.0299540  59.3735790  21.5362620
  38.8679934  15.9286785  21.0807347  39.1461039  16.4513958  21.8328357
  37.9810429  16.2346756  20.8912110  65.5802011  31.7633128  33.3736706
  64.6459532  31.6780257  33.5637641  65.7426453  32.7065015  33.3891511
  34.3574262  21.6469336  40.6312037  33.7557244  21.1588287  41.1932945
  33.9315414  22.4946117  40.5035400  48.0186224   7.9573369  32.4778843
  48.4838200   8.3004987  31.7149544  48.7102795   7.7447253  33.1044912
  15.6911623  71.0574675  47.9794073  15.8931410  71.8568420  48.4656525
  15.4375184  71.3642645  47.1089077  62.9473114  25.3335166  31.0002518
  62.6595640  24.7453403  30.3020525  62.1382618  25.6028795  31.4351273
  16.9588709  30.1876116  66.9587898  16.0358214  30.1139379  66.7163420
  16.9461727  30.3608060  67.9001045  77.8153133  47.4701595  46.0735369
  78.4501743  46.7541313  46.0514641  78.3335209  48.2428694  46.2984991
  38.2088852  72.3851013   1.5937698  38.0697584  71.9651651   0.7449295
  38.1764340  73.3229828   1.4051911  81.8581867  14.1802144  32.7871180
  81.0054207  13.8429129  33.0614114  81.8090343  15.1211870  32.9555941
  40.8303022   8.1105536  26.2831688  41.0120773   8.2027960  25.3479242
  39.9610353   7.7114892  26.3199925   3.0376363  71.1630535  17.0966244
   2.4190512  70.8968687  17.7768672   3.7594506  71.5704632  17.5754082
   1.0960596  70.6694937  48.1555223   0.3871693  70.6609869  47.5123787
   0.8162253  71.3074303  48.8119984  17.9330027   8.0209965  57.8991556
  18.6854267   7.4833709  57.6520729  17.1867979   7.5986153  57.4737072
  73.6971426  41.0818768  25.3252363  74.2888498  41.8302345  25.4031825
  72.9734230  41.4037323  24.7877741  35.0977778  72.4474287  33.3991051
  34.8539209  73.3730364  33.3945560  34.3711853  72.0104980  33.8433886
  16.6552007   4.3917972  15.1971352  16.1428297   5.1491731  15.4801357
  16.1517453   4.0189111  14.4734514   9.0885597  45.0892067  30.8178687
   9.4952518  44.9129152  31.6662526   9.5909208  44.5614100  30.1971459
  59.6818495  69.4477940  56.8860102  58.7883949  69.2255592  56.6241264
  60.2344418  69.0520477  56.2120199  41.0178280  64.1765451  39.9071026
  41.4019680  64.6901894  39.1965842  40.4781103  63.5215521  39.4644690
  75.6608534  49.6172523  45.5639362  76.2325525  48.8495874  45.5546999
  75.4015064  49.7117281  46.4804792  22.2627258  75.4812622  34.4183421
  21.6020489  76.1698103  34.3432379  23.0806684  75.9047079  34.1577840
  50.1614714   5.2702516  31.4832163  50.0377941   4.8749602  32.3461652
  50.1078176   4.5347711  30.8729529  19.2453885  60.6988001  42.1412134
  19.3888736  60.5322218  41.2096024  19.0639186  61.6372919  42.1915483
  66.0265017  14.6834004   7.6908541  66.8493032  14.6148062   8.1751275
  65.5949068  15.4539657   8.0598885  41.7862320   8.7942201  10.7242334
  40.8803320   8.9607608  10.9846914  41.9232655   7.8660977  10.9140813
  71.9750452  26.7002201  58.1837225  71.2691736  27.3030376  57.9500771
  72.5606823  27.2192979  58.7349176  43.8601446  48.9282322  19.9839449
  44.6940327  49.3702364  19.8242676  43.4682846  49.4115973  20.7112932
  62.8513479   0.7863739   4.3817189  62.9560757   1.1419674   5.2642256
  62.7899933   1.5578099   3.8183776  29.3628955  17.3088479  40.1419687
  30.0823140  16.7384219  39.8712611  29.7342229  17.8474748  40.8407021
  43.4493113  28.7507915  42.2583914  43.5743141  29.5383382  41.7288828
  44.3142748  28.3418512  42.2873259  63.7072468  19.7704160  20.9289694
  63.7665081  19.1489589  20.2033591  64.6141195  20.0222349  21.1033201
  31.2413502  15.8564043  27.8285003  31.2979889  16.7964935  27.6574564
  31.6438794  15.4487598  27.0616722  12.5573778  48.1239319  13.0442739
  12.8756881  47.2345543  13.1989253  12.5755048  48.2226706  12.0923519
  20.4104590  11.2899745  46.4863777  20.5723000  10.4044926  46.1608601
  21.1205077  11.8146288  46.1165142  44.2295408   7.3295605  21.8861365
  44.1008568   7.6377690  22.7831769  44.8826838   6.6340768  21.9632173
  65.4007244  51.1672354  12.5178707  64.7956419  51.3981962  13.2226861
  66.1389399  50.7509041  12.9627752  47.1950340   7.1498692  27.0963693
  47.4527788   7.0895505  26.1765003  47.5174141   6.3386691  27.4891233
  19.1997087   1.2930779  44.2180729  19.4388723   1.4678369  43.3078575
  18.4023356   0.7667861  44.1593885  57.6052713  16.0777998  47.0482683
  58.1480265  15.3263402  47.2869205  56.7356730  15.7070673  46.8979549
  77.0397997  31.8561053  47.6863766  76.5632963  32.2732925  48.4041023
  76.4470577  31.1745381  47.3695898  52.0496178  10.8655596   2.7392864
  52.1008253  11.6603196   2.2082815  51.5680265  11.1314845   3.5226056
  55.9669412   0.3740791  34.2816830  55.1797284   0.5890754  34.7819877
  56.6892184   0.5474666  34.8854089  50.1862563   0.5665926  36.7329240
  49.4632781  -0.0283190  36.9319510  50.2579058   0.5456356  35.7786417
  80.8689880   3.6300719  40.6694603  80.3017426   3.2819033  39.9815321
  81.7497158   3.3533558  40.4165459  34.2520308  -0.0177691  27.3050857
  34.7209024   0.2213636  26.5055823  34.1153574   0.8131409  27.7602124
  36.8338156  17.1790648  17.8881097  37.4217844  17.8703451  17.5837183
  37.2394085  16.3677728  17.5822806  51.9920635   9.0935260  42.6798868
  51.5445566   8.5254109  42.0528221  51.5836430   8.8900334  43.5213232
  26.7267776  64.8915863  47.9769373  26.3892794  65.0377655  47.0932150
  27.3271346  64.1517925  47.8847122  55.1583910  74.8892260  64.7582531
  55.3434992  74.1717482  65.3642130  54.5574093  74.5114088  64.1161394
  34.0988208   0.3317980  18.6093068  33.5324950  -0.0721928  17.9518127
  34.9650992  -0.0381037  18.4391201  39.7731924  19.6718848  40.8758926
  38.9379787  20.1239777  40.9953213  40.2979898  19.9345481  41.6320848
  69.2460346  12.0199347  15.2887428  69.3810320  11.0771465  15.3844392
  68.4579039  12.0956576  14.7508359  58.5977888  11.2048471  16.6828322
  58.3024645  11.8987918  17.2722864  58.4467745  10.3954911  17.1710622
  22.4688816  67.3190165   4.0144858  22.1900296  68.1360006   3.6009479
  23.2469130  67.0552874   3.5232157  44.9522924  20.1736999  30.6690812
  44.6303558  20.8466792  30.0693393  44.4923258  19.3770897  30.4043651
  70.2148676  17.6501584  22.8980017  70.6105518  18.3063066  22.3242998
  69.6289587  17.1541548  22.3262286  32.4927020   5.0533062  65.1401758
  33.1551957   5.5514842  64.6614742  32.6611567   5.2537793  66.0608625
  41.9220734  74.5130777  32.5338197  40.9883690  74.3034554  32.5117207
  42.2617245  74.1814947  31.7026043  13.6400568  59.9886560  66.2288332
  13.9955723  60.2159739  65.3696680  13.2080877  59.1452122  66.0937738
  82.0915508   8.2055151  50.6064796  82.2498894   7.4582911  50.0295782
  82.2585106   7.8682148  51.4865875  42.3156595  75.3971291  50.0115108
  41.3684750  75.5337906  49.9915552  42.6347208  75.8140421  49.2111254
  75.7731247  66.5304995  29.8507738  75.8325434  67.2882891  30.4325461
  75.0510597  66.0120249  30.2057958   9.6631199  12.4968088  46.2972784
  10.0659466  11.6958368  45.9620094   9.7294122  13.1194293  45.5732775
  79.9419928  15.4850686   3.7050977  79.5006704  14.6397495   3.6220321
  79.9191570  15.6760609   4.6427718  38.4443294  77.4109547   6.9369054
  37.9502737  78.2176184   6.7904997  37.8177415  76.8183496   7.3521650
  19.4235408  75.4189539  55.9092903  18.9449525  76.2348032  55.7623911
  18.9245176  74.9678230  56.5902376  11.4126480  70.4197264  12.9549098
  11.7325318  71.3160896  12.8527129  10.6123352  70.5085707  13.4724414
  74.0688753  25.2404952  57.1704865  74.8180819  25.5572605  57.6750422
  73.3667421  25.8597445  57.3699188  23.5382581  22.1964812  10.7041991
  23.1213665  22.7104568  11.3957632  23.4963799  21.2933731  11.0186410
  59.0203476  12.2211468  22.2948766  59.2386007  11.9620073  21.3996410
  59.0007496  13.1778026  22.2692704  10.2374387  68.9290953  19.0663528
  10.7818711  69.4452667  19.6608222   9.4150227  68.8063383  19.5404780
  65.4391336  24.6034288  11.9218290  64.7960711  24.7135496  12.6222408
  65.6640148  23.6733675  11.9472027  63.9681816  33.9821672  41.3498402
  63.1427050  34.0482903  41.8298912  64.3819237  33.1900764  41.6928291
  63.6314344  27.0967698  39.6585155  63.8246059  27.5956655  40.4522514
  63.6880255  27.7398014  38.9517331  60.2096128   8.0227315  44.9140787
  60.3780460   8.4841907  45.7356119  61.0784483   7.8707558  44.5422459
  72.2086239  16.3332057  24.2667913  71.3796997  16.5625942  23.8466716
  72.5715399  17.1711028  24.5539355  25.0486898  73.1592083   3.8199630
  24.8422003  72.2287369   3.9084116  24.7374725  73.5521793   4.6354067
  75.6668377  56.6487741  62.1548796  75.5808353  55.7085800  61.9971704
  76.3015175  56.9440699  61.5020227  53.4191084  30.9772062  63.2922506
  52.8995895  30.4461408  62.6886797  52.7799511  31.5451956  63.7224817
   3.9454648  33.9384317  40.0861120   4.0193444  34.2657256  39.1896462
   3.7730768  34.7190070  40.6126261  64.6697855  14.2054594  31.5317488
  64.1011429  13.5009575  31.8424821  65.1259375  13.8304281  30.7784176
  48.5598993  18.9879310   8.1781292  47.8788996  19.1123748   8.8391787
  49.3725061  18.9257360   8.6801565  55.6953430  12.9433990  17.4281573
  56.4220476  13.4635949  17.0853400  56.0156775  12.6066267  18.2649374
  34.2251110  64.2912865  50.8431530  34.5427155  65.0781107  50.4001331
  35.0198531  63.8304138  51.1118793  65.9730959  11.5858376  17.0414126
  65.9709072  11.4572060  16.0928965  66.8090773  11.2202656  17.3307633
  10.2333736  62.6137304  38.8901067  10.1069522  63.1126833  38.0830765
  11.1128211  62.8517771  39.1835976  55.6954670  77.5863314  24.0195727
  54.9467230  77.7041388  24.6041512  55.7499552  76.6397905  23.8879371
  34.4431591  57.4123716  50.5088091  34.1948509  56.6654396  49.9641323
  35.2054763  57.7874327  50.0678635  37.7651739  76.5257502  57.6959276
  38.1341100  75.7115173  58.0381870  38.1920910  77.2147703  58.2050705
  60.8226204  18.7251556  28.8761973  60.1547432  18.2991469  28.3389020
  60.3899336  19.5059717  29.2216492  40.4444551  28.1541634  19.3838942
  40.3436232  27.3009610  19.8059249  40.2085257  28.7864995  20.0626588
  80.6215096  70.5196428  43.2941866  81.5298080  70.2599335  43.4484148
  80.5839062  71.4351988  43.5709000  59.1130590  15.5212212  12.6266861
  59.5510149  15.4417884  13.4741044  58.3064222  15.9997725  12.8178823
  70.9001303  28.0079937  50.4237604  71.4593363  27.6417255  51.1088657
  70.0499296  27.5896859  50.5594492  73.1494141  28.5638356   1.4132513
  72.8545046  27.7147889   1.0840379  73.3466768  29.0707421   0.6256177
  66.9034529  34.5656228   8.1171697  66.5464497  35.2619195   7.5658482
  66.8311262  34.9054861   9.0090740  74.9579859  49.9697638  65.6668901
  75.2549505  50.6563902  66.2640381  75.7524443  49.4829369  65.4476452
   4.9584624   1.5481645  47.8848410   5.0248671   2.0882669  48.6723089
   4.4408879   0.7903850  48.1570864  80.2643013  28.7297916  62.1399832
  80.7335758  29.5422029  62.3297167  80.9369755  28.0499220  62.1790171
  71.3879204   1.8117611  41.9120121  71.6827297   1.6769376  42.8126478
  71.9573927   2.5031790  41.5745544  36.5391755  27.9721260  54.8856688
  35.7583547  27.4475622  55.0628185  36.2081385  28.8627291  54.7695827
  71.2063074  28.5189128   7.0210785  71.3988543  27.7067828   7.4896991
  70.6098986  28.2554317   6.3202864  43.7286901  21.6376472  51.3704205
  42.8608990  22.0403767  51.3391018  43.6095238  20.7799006  50.9626102
  30.2279949  74.0195942   4.3382931  30.8035183  73.6927032   3.6468118
  29.3502665  73.7521172   4.0657508  32.6198268  64.2356157  23.6318469
  32.7556992  63.9324331  24.5295382  33.0824256  65.0725222  23.5890937
  28.3542228  11.3208854  55.3435850  29.1926789  11.7096221  55.0943708
  28.2518482  10.5738866  54.7538853  39.7149992  14.5043874  48.9473104
  39.6124673  13.5542083  48.8936567  40.2269220  14.6454561  49.7437191
  69.7380161  49.2821884  65.7735062  70.6657124  49.0975428  65.6268120
  69.6191406  50.1777935  65.4572868  22.1466351  56.2674189   9.8493540
  23.0922580  56.1716032   9.7359920  22.0431781  57.1052408  10.3005588
  29.5028853  68.1153584  47.0451498  28.8008237  68.1800747  47.6925707
  29.8994517  68.9864731  47.0339918  40.0305653  19.1382265  21.5291619
  40.3002357  18.4281981  22.1117163  39.1839957  19.4223869  21.8738389
  50.2333975   1.1486284   8.9796799  49.9532652   1.0898548   9.8930812
  51.0891628   0.7201003   8.9635688   4.9325177  19.1543615  42.0748520
   4.0398744  18.8258481  42.1820831   5.3518653  18.5222244  41.4910889
   8.7795866  25.1750875  18.3177269   8.9836991  25.4263783  19.2185175
   9.6049696  24.8367739  17.9705691  33.0719042   6.1564839  51.7486000
  33.0035329   5.9657800  52.6841164  32.2929502   6.6771597  51.5527487
   7.8093177  37.2527933   8.9564157   8.1673819  38.1119537   8.7331057
   8.4506142  36.8751407   9.5583695  60.1801395  15.4097128  30.6100297
  59.7653818  15.6529713  29.7823620  61.0286999  15.8522666  30.5918694
  62.2684336   8.2769901  40.4818439  61.7704248   7.5299156  40.8136559
  63.1173658   7.9090285  40.2365875  53.5621166  38.0307984   3.3157772
  53.0330849  37.3852968   2.8470719  54.4514418  37.8942776   2.9891378
  71.5807390   8.5932010  36.3279295  72.4808979   8.8016200  36.0779119
  71.6275167   7.6999271  36.6686726  48.8892460  21.6462898  54.5864105
  48.9914131  21.1917114  55.4225636  47.9764557  21.9344044  54.5803881
  66.7353868  24.9277878  22.8945065  67.4504471  25.5580831  22.8070498
  65.9405136  25.4583836  22.8408885  32.8080750  20.1834440  50.6603193
  32.1150756  19.7626626  50.1514769  33.5779524  19.6328235  50.5176973
  44.2991495  28.0676174  51.5609074  43.7019300  27.8077483  52.2623539
  43.7439442  28.5288525  50.9322309  67.3049641   3.0184880  35.2991843
  67.1240282   3.9102039  35.0019670  66.4573193   2.5757170  35.2581429
  79.2210722  17.3134577  45.6419277  79.2840481  17.8674078  46.4200020
  79.1690350  16.4218545  45.9862614  51.5669203  27.7654862  58.6418009
  51.3115978  28.6844277  58.7229919  52.5035143  27.7587843  58.8392210
   7.3746032   6.2846166  67.1463060   6.7268652   6.8806911  67.5222874
   7.8334308   6.8113685  66.4919043  76.7087507   6.5694004  25.9698319
  77.4623537   6.7095780  25.3965378  77.0889902   6.4476347  26.8397880
  21.8935561   7.1027827  14.0165734  21.3065124   7.8299034  14.2237163
  22.1163869   7.2300929  13.0944180  81.1870193  75.5855560  57.6573038
  81.7566204  76.3255119  57.8676510  80.5622864  75.9369707  57.0229101
  81.3336277  42.7551126  29.3423223  81.6820621  43.6015987  29.0625191
  80.3938103  42.8143930  29.1706824   2.1274051  34.0175009  26.1672306
   1.4050138  33.4770656  26.4870930   2.0403522  34.8416114  26.6462851
  52.3164598   7.7611449   0.3697883  52.4757330   7.0034506  -0.1930274
  51.4765350   8.1093743   0.0706302  79.0174484   4.8765483   9.9561942
  79.0798569   4.9780086   9.0064353  79.4128656   5.6737894  10.3087330
  35.6390834  16.7798805  34.7231579  35.4227352  16.0209548  34.1814423
  35.0663090  16.7007506  35.4859805  67.3055077  23.1819963  25.2052522
  67.2081900  23.7680888  24.4547486  67.2130013  23.7525153  25.9682608
  52.6340818  10.9401536  40.6804514  53.2372522  11.5717232  41.0722923
  52.3941326  10.3586805  41.4019442  73.0855989  39.9224019  65.3807116
  72.4858665  40.0568962  66.1145163  73.2352066  38.9771152  65.3638172
  37.2858834  62.9829311  43.0989981  36.6262054  62.7893782  42.4329662
  36.9150782  62.6372671  43.9109373  20.5526781   5.2644461  63.9564419
  20.5851841   5.1818174  63.0033684  21.1307716   4.5720246  64.2767382
  72.5531721   9.6398652  66.4966440  71.6742563   9.2947018  66.6534853
  72.5876141   9.7868687  65.5514240   9.7856379  23.7345147  20.7535458
   9.3192983  22.9052401  20.8587217  10.3237951  23.6092114  19.9719334
  10.0859833  48.5958910  59.1276884   9.6295959  49.2930555  58.6566257
   9.8249710  47.7922678  58.6779165  32.2661138  70.9797812  61.6188908
  31.3122129  70.9464455  61.5468168  32.5761223  70.9425735  60.7140446
  46.5908432  37.6076365  11.7149746  46.7549181  37.5710034  12.6572955
  47.4361897  37.4007654  11.3164473  32.2970176  14.5905471  10.1601255
  32.3637843  14.0933979   9.3448853  33.1290841  14.4322324  10.6060338
  58.2772398  27.9689002  38.2087970  58.5825443  28.6159348  38.8446951
  58.5538244  27.1274400  38.5716677   2.4593765   9.4428474  27.7106547
   2.0721394   8.5955977  27.4905467   3.3574218   9.3878573  27.3839688
  37.3829937  25.8763027  18.6541820  36.6955018  25.2479839  18.4332728
  38.1991792  25.3921890  18.5288692  81.3909721  44.2488289  31.6340590
  81.5897751  43.6603451  30.9057760  80.5125141  44.5777130  31.4433002
  15.4065812  66.7376471  28.6593676  14.7525620  66.8753338  27.9741406
  14.8987830  66.6922665  29.4694996  38.0540967  75.2848911  44.4972324
  38.8391900  75.5248356  44.9894571  37.6443338  76.1215019  44.2772150
  65.7910252   9.2989373  43.8899517  64.8998928   9.4666815  43.5833931
  65.8554840   9.7811580  44.7142935  64.3312120  26.1475682  50.5254841
  63.6285925  26.3417077  51.1458588  63.8813639  25.8011866  49.7548437
  62.6446486  26.2802529  16.1802840  61.7173767  26.1549902  16.3820517
  63.0319118  26.5727186  17.0053458  59.6553946  58.3501959  19.0128231
  58.9409876  57.8585052  19.4179058  59.2275906  58.8913107  18.3491898
  27.5684595  68.6191654  44.4171000  28.0489540  68.9799547  43.6719847
  28.2495618  68.3447313  45.0311184  12.6294577   1.9878435  15.1088023
  12.9148412   2.6047245  15.7827806  13.4276068   1.7756495  14.6248984
  74.5305872  13.2515025  33.7155771  74.6294641  14.1996026  33.6286235
  75.3016901  12.9746675  34.2105484  71.0857821  20.3022194  26.7104816
  71.4291668  20.5172324  27.5777102  70.1583290  20.1178622  26.8590593
  56.3874292  38.5773015  59.1514158  56.3573503  38.7433791  58.2092142
  57.2630310  38.8589334  59.4164324  72.2202253  10.2074432  38.8888288
  72.4695826  10.5354834  38.0248594  72.6688910   9.3652481  38.9639068
  60.7599020  56.1792946  59.9876881  61.3989830  55.6910086  59.4686651
  60.2093220  56.6177607  59.3389702  36.1551952  13.5835350  48.5947323
  36.9831443  13.2699764  48.9586210  36.1942291  14.5346224  48.6954355
  75.9572315  38.4089351  27.7192283  76.6937590  38.6168003  27.1442962
  75.4948425  37.7014804  27.2698569  41.8186855  23.2482147  13.2472634
  40.8810663  23.2147193  13.4369683  41.8836832  23.7797499  12.4538672
   5.4156375  78.0081511   0.6439002   4.8446399  77.7439547  -0.0774835
   5.6744576  77.1850348   1.0582960  18.1699359   1.0313829  49.7745514
  17.8233278   0.2155871  50.1358986  18.7028885   1.3983940  50.4798889
   5.0830787  21.3907099  33.7162066   4.8189273  21.6162181  34.6081710
   4.8762169  22.1703291  33.2008100  61.7613983  60.3327703  64.7995615
  61.9313049  60.8145523  63.9900875  60.8426714  60.5140400  64.9978352
  71.0252762  51.4904690   0.1998389  70.7793760  51.6287422  -0.7148430
  70.3627253  50.8877707   0.5374948  45.2963066   1.2159038  12.8563678
  45.6664276   2.0973484  12.9043257  44.6709633   1.1790100  13.5801196
   1.3934751  52.9083586  40.7658148   1.3678914  53.5243797  40.0336313
   2.3062021  52.6229191  40.8068895  43.7716627  18.5960817  15.5792189
  43.8328314  17.6519227  15.7243180  44.4410467  18.7810338  14.9204719
  45.0050783   6.5914226  56.4899206  44.3149900   7.1856457  56.7847204
  44.5585012   5.7564372  56.3499212  56.4428425   3.8436961   3.7667993
  57.1941566   3.3147675   4.0351102  56.7153740   4.2458928   2.9420599
  17.9622197  10.0104058  38.4542942  18.0335474  10.9616160  38.5339379
  18.8305998   9.6844703  38.6907578  55.5043936  73.0290127  60.0656891
  55.6398010  72.1393824  60.3919554  54.5595503  73.1672382  60.1320457
  65.0182152  33.4797668  30.8040333  65.8463192  33.0087900  30.7110071
  64.3484020  32.7973223  30.7610059  64.7369051   7.7884340  39.4956851
  65.0384235   7.2416013  38.7702227  65.3172112   8.5494900  39.4792295
  73.3706665  27.8524184  27.2720909  72.7370214  27.9559565  27.9820251
  74.1658068  28.2745886  27.5972867  78.6640835   8.9632702   9.3594825
  77.7515793   8.8467228   9.6240264  78.6471510   8.8959640   8.4048021
  69.3808126  22.5353813  35.7126093  69.6319962  23.0373001  36.4879894
  70.1702833  22.0483541  35.4764485  58.2576370   5.9091210  44.5807505
  58.7455463   5.2725029  44.0583611  58.8695478   6.6341883  44.7075319
  18.2735527  77.0132923  10.9620762  18.1824565  77.7151775  11.6065049
  17.3940408  76.6435623  10.8846891  49.1953039   5.8328617   1.9907761
  49.8867893   6.4903963   1.9150896  48.7576628   5.8464587   1.1395918
  81.7563438  20.8132005  32.1442342  82.3183250  21.5836692  32.0618463
  81.0572243  20.9573889  31.5065336  75.9044266   8.7405431  27.2352672
  76.1400223   8.1502515  26.5195298  76.4429617   8.4509283  27.9717016
  20.9175372  63.4204197  26.0590148  20.6811619  64.2672300  26.4375305
  21.7542458  63.2002163  26.4684772   1.5710084  24.1550469   1.3732140
   1.0366083  23.3945465   1.1445518   2.3770353  24.0415525   0.8695558
  70.4820728  35.1737738  28.5384917  70.9435272  34.3426466  28.6503863
  69.6331406  35.0347948  28.9582849  70.2559566  57.8550959  31.0928869
  70.9704924  57.2329569  30.9564590  70.3665018  58.5031319  30.3971386
  28.8775444   9.2795658  48.9604235  28.3095884   8.5898805  49.3039227
  29.3819785   9.5742315  49.7186756  48.2939863   2.2756666  47.9165840
  48.4328175   1.7004101  48.6689377  47.4001360   2.6004535  48.0251408
  79.5039272  62.5184917   9.1595048  79.4662571  63.3202505   8.6379719
  80.3977680  62.4968672   9.5012891  63.0584669  32.0130658  33.9194655
  62.7028656  32.3684192  34.7340202  62.5221825  32.4076414  33.2317567
  50.9487867   2.2936082  62.9853392  51.4933825   1.7080019  62.4593067
  50.3302574   2.6714817  62.3601437  38.4291267  61.5307713  10.6936800
  37.6383543  61.9440746  11.0402203  39.1461587  62.0747709  11.0195053
  46.1744499   8.6333114  46.6330528  45.5503798   8.1648976  46.0786581
  46.5553474   7.9550785  47.1908617  71.9306898   4.1851306  28.5191202
  72.3477173   3.7668365  29.2723489  72.4137974   3.8526273  27.7626276
  57.5837231  22.8310657  35.4512167  57.1433592  23.0896878  34.6416330
  58.2484579  23.5059929  35.5884314  53.1910801  20.0683689  46.9519854
  53.7548876  19.5056581  47.4827433  53.2388973  20.9246612  47.3770809
  23.0603313  42.9919863  66.2779999  23.6855316  42.5235510  66.8311071
  22.2479796  42.9949760  66.7842722  81.0757256  23.7114239  18.4756899
  80.8929253  23.2781434  17.6419711  80.9601879  23.0250001  19.1327357
  50.6141186  56.5309477  17.4390781  51.1677837  57.1374321  16.9472814
  51.2263536  56.0341167  17.9818141  51.8524361  15.1394093  27.8046489
  51.4138746  14.9788404  26.9691181  52.7024555  14.7083795  27.7157068
  19.7710371  68.1799603   1.7733322  19.5998430  68.8417530   1.1032941
  20.1876521  68.6635160   2.4866584  11.1079741  43.5909557   1.5662082
  11.3955426  43.6799240   0.6575714  11.1650324  44.4771957   1.9233561
  54.8965168  65.2949524  14.6596694  55.3204060  64.4508076  14.5048547
  54.7544575  65.3216696  15.6058908  52.2643863   5.6817914  67.3204431
  51.8708097   5.9679700  66.4961672  52.0288145   6.3648940  67.9482231
  37.6849794  72.9475021  20.0987935  38.3262634  73.4416628  19.5881152
  36.9238162  72.8761005  19.5228040  11.4340734  56.5969753  46.7567253
  10.5608821  56.9845057  46.6968346  11.5054166  56.3066673  47.6660490
  62.4614143   4.2371961  45.9326839  63.1379938   4.9051294  46.0437679
  61.9246244   4.3063986  46.7221737  43.4344482  18.8127184   4.8503667
  44.1720724  18.4611487   4.3518236  43.7095165  19.6966100   5.0938916
  66.4439249  11.7699730   8.4366965  67.1867371  12.3451829   8.6199838
  65.8733988  12.2888422   7.8696764  46.7015791  25.5445504  41.3636017
  47.1570015  24.9954128  42.0017815  46.0621929  26.0336375  41.8814945
  15.8929467  24.0302825  47.4299765  16.8295002  24.1050410  47.2469187
  15.8119202  24.2508054  48.3578968  80.9479332  19.5344043  54.3055916
  80.2046394  18.9631164  54.4989109  81.1095810  20.0025749  55.1246881
  32.6160741  66.8711376  44.6269751  33.0320644  67.7324295  44.6639061
  32.4722266  66.7144489  43.6937094   4.0908194  41.7088127  27.6797318
   4.0725747  40.7942152  27.9615283   3.7943533  42.2012281  28.4451509
  58.9508438  38.9962053  14.8409057  58.7134933  38.5671473  14.0188313
  58.5610104  39.8681068  14.7772765  78.4788704  17.8727186  14.3917000
  77.6358891  17.6640928  13.9890981  78.3861160  18.7788868  14.6857882
  35.7134485  38.4345126  37.1766615  36.4794731  38.4207368  37.7504635
  35.6458902  37.5388575  36.8458033  18.3279276  63.2440281  60.1045513
  18.1803632  62.3139095  59.9332714  18.9019775  63.5302734  59.3940878
  39.4207549  22.8173590  42.3026991  38.4935164  23.0244565  42.4191904
  39.8247051  23.0484486  43.1391525  72.2872162  30.5313420  38.9228630
  72.2032404  30.8754396  39.8121190  72.7838755  29.7196078  39.0260530
  60.9062910  39.5359159  21.6141868  60.8584690  38.6403513  21.9487143
  61.4743137  39.4746995  20.8461785  61.4626026  35.0466943  45.4636621
  61.7782402  35.6748390  46.1133051  60.6666183  34.6818042  45.8503103
   1.7442089  36.1007142  27.7700043   1.9319195  36.6033554  28.5626864
   1.3286710  36.7298174  27.1802688   4.7226384  54.1468906  67.0655012
   5.0636226  53.6522818  66.3203001   5.3292996  53.9523268  67.7798796
  10.4984486  35.1032090  34.9995470  11.1669695  35.5937696  34.5213604
  10.9928644  34.5626664  35.6156635  76.0459137  20.7183003  26.5946031
  76.7563343  21.2766027  26.2786365  75.2812719  20.9947991  26.0895252
  76.4380598   2.4982131  39.4024181  76.1894369   1.5780988  39.4907880
  76.2924385   2.8702682  40.2722454  66.5199852  61.4061737  36.2221789
  66.6547918  60.4898500  35.9804940  66.0517693  61.7838669  35.4776287
  70.4686451  21.6543341   6.5630358  70.7391453  21.8921947   7.4498749
  70.3750181  22.4915266   6.1085320   2.0535953  58.3269978  51.1714649
   2.9465586  58.0797148  50.9312582   1.8574537  59.0831614  50.6183100
  57.6403904  20.7481575  39.6499014  58.0674171  20.2130318  38.9809322
  57.2183657  21.4533305  39.1591287  74.2775297  17.4004734  20.8744526
  74.7040033  16.5935075  21.1628246  73.4547520  17.1092916  20.4814076
  68.8842964  38.9294314  26.8049908  68.4329128  38.4599352  26.1035228
  69.8144293  38.7951756  26.6231537  52.1334124  45.9741211  18.4819329
  51.8268967  45.1761866  18.9127290  53.0310297  45.7735157  18.2168436
   9.1679412  66.4906836  49.9246025   9.7265953  67.2645473  49.8519993
   9.7801304  65.7622719  50.0288725  71.7183113  53.1328630  42.2452068
  71.4655113  52.2275209  42.4259663  72.6490736  53.1701756  42.4654865
  68.4277296  15.3868163  37.7833605  68.3842516  16.1589622  38.3473945
  67.9386377  15.6353366  36.9989753  55.2801132  32.7387547  38.7048435
  56.2149382  32.6641297  38.5130882  55.1773167  32.3232317  39.5609999
  33.0499268  20.8194232  54.2518663  32.2917414  21.3713503  54.4436121
  33.1273365  20.8417368  53.2980633  59.8865366  62.8659582  31.7929220
  59.6711493  62.9368782  30.8629704  60.6769228  63.3958006  31.8967938
   9.0206963  14.0826285  32.2298765   8.4455061  13.3877909  32.5501728
   9.6736079  13.6271119  31.6984248  78.5279703  38.8442564  29.1404772
  77.8692102  38.2376122  29.4784832  78.4839678  38.7403464  28.1899500
  66.2404728  35.0486565  26.3629222  66.1928701  35.6303763  27.1215844
  67.1276426  35.1688576  26.0242271  46.2516594  10.2578425  12.7345109
  45.9872484  11.0864449  12.3348415  47.0707989  10.0303757  12.2946274
   0.8000586  66.1072206  12.1337020   0.5303159  66.4389038  11.2772810
   0.0466599  65.6050062  12.4441910   6.6263956  41.0293579  11.6578710
   5.8051932  40.5402803  11.7094588   7.1876264  40.6255913  12.3198557
  11.1190343  25.3321600  36.6750312  10.3306818  25.5346036  37.1787643
  10.8632565  24.6001673  36.1137867  27.1087956  20.7325292   7.0090842
  27.4436903  21.5602541   6.6641933  27.8838921  20.2812958   7.3435140
  80.3640652  30.7762980  37.6029634  80.4304981  29.8437619  37.8083730
  80.6001759  30.8350468  36.6772032  73.4047127  36.6058421  34.8710036
  72.8696680  35.9708357  35.3471613  74.2863321  36.2332439  34.8832774
  19.5218027   4.7444353  20.1436734  20.1639581   5.4238546  19.9381065
  19.7236466   4.4885328  21.0436773  76.3811827  34.5992184  20.9216690
  76.2025642  34.8559570  20.0170088  75.8374166  35.1847672  21.4486289
  67.3091888  52.9213047  46.1502695  67.3629618  51.9986010  45.9013462
  67.6123381  52.9425669  47.0579481  66.8943262  37.9217267  34.2976761
  66.5899706  37.0202208  34.4020343  67.2381783  37.9566193  33.4050512
  63.9449072  17.7388597  23.6574125  63.8522482  18.1818926  24.5008373
  64.8779964  17.8037417  23.4540200  63.6414909  38.2624221   7.6204747
  64.4508266  38.6690283   7.9301178  63.5145235  38.6203957   6.7418587
  54.2370558  18.2196569  56.6719484  53.6687183  18.7991571  56.1645937
  54.3084192  18.6430287  57.5274563  73.1310701  55.5700016  13.7905574
  72.5762415  56.2772083  14.1195774  73.1998062  55.7370710  12.8505599
  80.8292294  51.7770052  32.6712203  80.6112289  51.4692545  31.7914510
  81.3463688  52.5693750  32.5264907  65.7750273  42.8593445  53.7252665
  65.6556273  42.3493290  54.5264244  64.9022102  42.8990650  53.3343077
  82.6828671  32.7661800  46.4961529  82.6822948  33.4535885  47.1622610
  81.7986393  32.7865958  46.1301470   8.0963254  58.2739925  30.1507449
   8.6594057  58.4304142  30.9088397   8.5637265  58.6755991  29.4182968
  68.7152433  26.8949509  41.7282200  69.3930292  27.4459171  41.3367176
  69.1730309  26.3968921  42.4054241  62.4455023  73.1382895  46.1402130
  62.1352291  73.9586973  46.5234804  62.0943213  73.1420135  45.2497673
  68.3529949  20.8264780  13.3527315  68.4405661  19.9917555  13.8129508
  68.9451981  21.4187527  13.8161266  69.8458195  62.5540161  16.2353122
  69.1055918  63.0559635  15.8942163  70.3297234  63.1783104  16.7759812
  74.9753380  21.9096112  46.0063887  75.4432678  22.6174116  46.4494371
  75.5590343  21.1544442  46.0788870  80.0645256  71.4509630  60.6279707
  79.9893236  72.4049139  60.6515980  79.8918915  71.1747313  61.5280390
  56.7993546  73.9375687   0.2441740  56.2674475  73.4069729   0.8372803
  56.2617922  74.7092295   0.0658689   0.0361504  24.8201060  42.1133852
  -0.5704723  25.0290632  41.4030457   0.8922353  25.0964928  41.7863464
  78.9232779  30.7303357  15.1108241  79.0659189  29.8091865  15.3284681
  78.9224529  31.1788869  15.9564197  71.8286228  36.0430074  10.1578999
  72.3971605  36.8130040  10.1479173  72.4112988  35.3179669  10.3838146
  45.8618164   3.4367466  19.2955899  46.3673258   2.8527811  18.7301922
  46.5130043   3.8315523  19.8755169  15.1739717  26.3874078  36.1853790
  15.2342534  25.8968902  37.0051289  16.0697567  26.6777062  36.0135412
  53.0343628  13.5507488  18.7902963  53.3385801  12.7535355  19.2240405
  53.3395576  13.4634721  17.8872621   5.7427967  50.1986313  37.5304270
   5.4429030  49.3084431  37.3464203   6.5494531  50.2892733  37.0231605
  11.6917741  17.3500609  25.8612633  11.8324232  16.6229975  26.4677525
  12.4455798  17.9242170  25.9967399  15.8820641  20.8041596  24.5811558
  15.4442418  21.0606289  25.3928018  16.2695897  21.6149640  24.2515302
   3.1458372  37.2993207  35.8695626   3.4237480  36.9246840  36.7054129
   3.3991706  38.2207775  35.9240508  55.5342960  55.9366989  56.8145514
  55.3541136  55.0173903  56.6179800  54.6696520  56.3433695  56.8715239
  78.4584188  32.2686386  17.6359689  78.4868908  33.0456805  17.0777345
  78.1475639  32.5923705  18.4814262   6.5173900  19.8527825  14.3392682
   6.5055794  19.1855931  15.0255263   5.8360094  20.4736543  14.5970893
   8.0498910  77.6065636  62.9976463   7.2695273  78.1607342  63.0101252
   7.7562791  76.7884445  62.5967646   8.8923866  35.6820226  26.3986516
   8.4251285  34.9177885  26.7360663   8.6307293  35.7361794  25.4795027
  18.4695470  72.8138113   7.1922183  18.8388634  72.2546530   7.8757250
  19.0078247  72.6364231   6.4208400  61.6250896  35.2419686  19.7658372
  61.8138504  34.6360683  19.0492582  61.8121195  34.7402501  20.5592680
  51.5720034  72.6026583  22.4998760  50.9580374  72.7616024  21.7829275
  51.0205269  72.5515223  23.2805729  17.6419163  39.6059060  24.1763186
  18.2432067  39.9494553  24.8371172  16.8074977  39.5142603  24.6362948
  17.8508663   1.0601273  28.9376116  18.5954094   0.9214232  29.5229721
  17.8656256   0.3058667  28.3484554  41.1921215  75.3343964  10.5980623
  41.3794565  75.9964752   9.9326390  42.0263624  75.2056885  11.0494018
  62.9327869  52.0270538  61.3173962  62.6828051  51.1391211  61.5729570
  63.4450722  52.3538876  62.0569754  72.2286034  14.5597780   9.0636820
  71.7537880  13.8338935   8.6588663  73.1409168  14.4205153   8.8096666
  59.4369364  11.5198290  19.8379934  59.9161243  11.8448532  19.0757787
  59.7366619  10.6167507  19.9421191   0.9524847  15.7944345   3.9535782
   0.0146092  15.8823943   4.1235325   1.1315042  14.8620093   4.0750971
  73.3263779  54.8378706  30.3702831  73.5081387  53.9548302  30.0486755
  72.4753428  55.0598907  29.9925518  64.6542597  33.7144065  14.6176231
  64.7953796  33.5664821  15.5527353  64.8278141  32.8649974  14.2118955
  41.0625744  62.4222803  47.1521902  40.1689816  62.5671101  46.8411398
  41.5386915  63.2095194  46.8879890  76.3248205  10.5704737  21.6860890
  75.7980013  10.4500759  22.4761510  76.8506193   9.7729576  21.6249824
  61.9730520  45.0043535  27.4935722  62.7588892  44.4632959  27.4164486
  62.2497892  45.7551289  28.0189180   0.7306306  16.9995058  13.7140906
   1.1144824  16.4716876  14.4143033  -0.0612925  17.3721397  14.1016912
  69.3804169  28.8805747  61.3313627  68.9992619  29.6477938  60.9043646
  69.2893791  29.0576077  62.2676325  20.2418399  59.3579197  56.0562658
  20.8435631  60.0752783  55.8573818  20.5762744  58.9837933  56.8713808
  62.5934887  24.7092605  45.1501417  63.3021164  24.1433620  44.8438120
  62.2103453  25.0679302  44.3496513  73.8879013  49.4884348  58.9602375
  73.8872766  48.5394478  58.8351297  74.8147678  49.7264242  58.9828587
   6.4634782  46.3577843   8.3841842   5.7313567  45.9250355   8.8234574
   6.2489283  47.2898245   8.4228855  66.3675165  25.8447671  55.8773279
  66.0284185  26.1269426  55.0278473  66.6310215  24.9348879  55.7397890
  12.5873959  22.9676318  39.9853897  12.5806665  23.8032699  39.5185971
  13.5144269  22.7395630  40.0548840  72.5869274  41.5914917  43.4332514
  71.8425131  41.9910765  42.9833508  72.7135372  40.7532263  42.9888248
   3.0387962  36.2931418  53.3090544   3.1472558  36.8822551  52.5624514
   3.7192684  36.5612650  53.9265442  12.5455201  43.1764174  35.5298066
  12.5630915  42.6136446  34.7557187  12.0925093  43.9682674  35.2400088
  58.6334801  49.6357775  21.6287470  58.1496859  48.8168287  21.7359567
  58.3499336  50.1794481  22.3637676  46.2743807  64.3919420  54.8051596
  47.2121239  64.5797634  54.7653103  46.0551262  64.0797424  53.9272690
  39.7162986  15.7668984  60.4707050  39.3652153  14.8805511  60.3849125
  40.3145838  15.8603275  59.7293806  81.5731335  49.5297003  38.5627794
  81.5749931  49.8098993  39.4780493  81.3889980  50.3282690  38.0681968
   1.3955438  42.9776525  31.9318199   0.5921135  43.4491920  32.1517754
   1.1804668  42.0565462  32.0785737  66.4294577  56.8752193  57.0521450
  65.5716085  56.5084314  57.2661257  66.9472980  56.7533827  57.8479004
  48.7905073  18.5388899  41.5418673  49.0558481  19.3925762  41.1997461
  47.9895830  18.3271241  41.0623789  67.5400496  61.3709736  41.9003296
  66.6947079  61.1616707  42.2975922  67.3181248  61.7404366  41.0456467
   2.1927711  53.1960440  51.0440397   1.4211181  53.2707071  51.6054773
   2.3699486  54.0927839  50.7599592  61.4802265  47.4092054  40.0326157
  62.2491646  47.4523783  40.6010389  61.3190222  48.3178282  39.7783494
   0.2849049  57.4255610  48.6552763   1.0333457  57.2612238  48.0816412
   0.2764660  56.6813087  49.2571449  18.2464468  71.3411903  60.4702568
  17.4346030  71.8389606  60.5670309  18.0386376  70.4740334  60.8182287
  78.5375309   4.5185068   4.3256694  78.8810492   4.3244112   3.4535724
  79.0657616   5.2553809   4.6326235  81.1013031  42.1070480  52.4039412
  81.0477543  43.0422115  52.6009941  81.6212845  41.7409229  53.1193447
  77.6882362  24.3704247  38.4197664  77.2859573  25.1373553  38.8274670
  77.6043081  23.6786270  39.0759683  59.1226768   8.0676013  12.7414465
  59.7166109   8.3112127  12.0314276  58.7862682   8.9016849  13.0691111
  42.0411301  68.7007523  17.1276522  42.6506376  67.9781246  16.9775176
  42.2300577  68.9920378  18.0196679  50.3203392   8.3670443  34.3128753
  51.1616516   7.9115963  34.3443537  50.5205822   9.2597592  34.5942926
  57.4919176  33.6265850  53.7038469  56.6789293  33.6065364  54.2087078
  57.8110170  32.7244568  53.7277651  22.1584725   2.9199725  11.7938721
  22.4667740   2.3660299  12.5110400  21.7996049   3.6945891  12.2267866
  30.6139445  59.4028330  55.9392023  31.5623331  59.3779755  56.0663748
  30.3068709  58.5551643  56.2607574  81.8789959  29.9045205  23.4572649
  81.6505718  30.7238865  23.8962317  81.0365582  29.5174313  23.2191586
  26.2439680   2.9043180  66.3905954  25.5122757   3.2133198  66.9248009
  26.2993407   3.5348573  65.6725502  79.6990871  33.9548516  10.3885722
  79.2362833  34.7705436  10.1970315  79.0095425  33.2922339  10.4297853
  24.3404627  70.4501057  26.7272782  23.9943337  71.1261272  26.1446786
  23.5853291  70.1702070  27.2446370  81.9087410  65.8386469  29.3193173
  82.2097301  65.0417280  29.7558546  81.3117886  65.5279875  28.6386037
   4.2857161  49.7735405  52.7516222   4.0972796  50.4802847  53.3690643
   4.3586251  50.2100849  51.9028902  78.3808184  34.4428420  22.8770423
  77.7241707  34.3531585  22.1863890  77.9613209  34.9960399  23.5360003
  20.6402779  70.4484558  54.3110752  19.8081064  70.5428696  53.8476038
  20.8130074  71.3177299  54.6726751  73.7020826  61.0333586  23.0403829
  73.7171459  60.0814676  22.9408216  73.9886284  61.1845303  23.9410877
  12.6686132   2.1139455  37.1146631  12.5161064   1.3977498  37.7311349
  12.4033713   2.9006362  37.5911045   2.7989206  48.7840652  13.3436978
   2.0654525  49.3901920  13.4479380   2.7776429  48.2441902  14.1338348
  14.4329154  68.7792063  17.0711088  14.7814810  68.3867073  17.8715348
  13.9513922  69.5497274  17.3722088  73.1057882  70.6637764  57.9263496
  73.4654808  70.7179546  57.0409584  73.6619282  70.0248623  58.3721256
  65.1648855   8.2766867  14.5806205  64.2919254   7.8925562  14.4992816
  65.0264597   9.2151648  14.4528413  69.8373318  43.0181026  22.2260499
  69.0322018  43.4049129  22.5700998  70.1040697  43.6078453  21.5208626
   6.2002873  48.3180428  27.3881459   6.8875116  48.3171225  26.7218471
   6.5023869  47.6904058  28.0446792  78.9439297  49.2322588  57.0072746
  78.1427383  49.5629883  56.6011477  78.7005138  48.3732986  57.3524904
  36.3797212   3.6872447  34.2892647  36.9024587   3.5762340  33.4951282
  35.8863211   2.8707299  34.3673182  13.9495099  55.4942036  50.0848055
  13.0644715  55.5538750  49.7251129  14.3738246  56.3080835  49.8131609
   6.6793638  75.8016777  22.1295309   6.9556361  76.7122650  22.2331476
   6.0769075  75.6498337  22.8576946  69.2559195  56.9865990  50.8721828
  68.6002254  56.5715647  50.3117800  68.8444901  57.8019476  51.1588240
  43.0901766  27.1948338  58.9875793  43.1518888  27.8156805  58.2616520
  42.1502829  27.0583820  59.1067982  20.3674865  46.1227846  51.9249678
  21.0334229  45.4587889  52.1034956  19.9967599  45.8689928  51.0797548
  66.5063334   0.3305173  47.1726608  67.1541405   0.4077283  47.8731012
  65.8668137   1.0173491  47.3611021  78.8713026  60.4668283  12.9704618
  78.6108398  60.9672451  13.7437499  79.0187073  59.5795107  13.2978404
  11.0142565   5.6249470   4.0210196  11.7670703   5.0884032   3.7727755
  10.9915638   6.3231623   3.3666408   8.8643122   4.4670796  43.2481146
   9.6493816   4.2996946  43.7695312   8.9151549   3.8367665  42.5295353
  11.9444537  57.9070282  26.7325497  11.1214650  57.7594662  26.2665606
  12.0100129  57.1715546  27.3416543   6.4466721  31.0990810  34.9998546
   6.1170584  31.8841672  35.4371476   6.6454053  30.4929686  35.7135510
  15.3436470  13.7931299  22.9035401  15.1200616  12.8760827  22.7445841
  15.8692586  13.7763453  23.7033415  57.8556252  41.8957615  28.6727381
  57.2159481  41.7603302  29.3718123  57.5819445  42.7109623  28.2522869
  18.3817363  26.0530210  42.2963953  18.9550352  25.3321290  42.5569201
  17.6810360  26.0494709  42.9484987   2.3014081  76.1349916  59.2977619
   1.8831366  75.4414225  59.8079014   3.2272917  76.0813808  59.5346117
  76.0801840  58.5539293  28.6548805  76.2125683  58.8727283  27.7620935
  75.2658224  58.0527258  28.6119461  79.6894646  32.4624133  56.4990568
  78.9291191  32.3578119  55.9270763  79.8858881  31.5755606  56.8009520
   6.7687446   5.4831648  27.8027225   6.3342851   6.2474054  28.1814218
   6.3627309   4.7352418  28.2408953  12.4180877  60.0311518  63.5521841
  13.3551323  60.2227783  63.5140038  12.2982919  59.2998409  62.9463243
  72.4348688  33.7332439  18.9927340  71.7279673  33.1426191  18.7325668
  72.6294661  34.2367125  18.2022381  77.1493435  45.7236195  23.5273957
  76.9455814  44.8804760  23.1226420  77.4812889  46.2606812  22.8079462
  58.9866686  35.0657821  37.3765111  58.9662027  35.0246334  36.4204144
  58.7232780  35.9624863  37.5833416   6.6834104  35.7510972  33.3373189
   7.3570311  36.4207768  33.4556150   7.0303756  35.1809502  32.6511836
  55.6945610   5.6369257  45.9143019  56.5008640   5.6520110  45.3986692
  55.9636831   5.3028297  46.7699814  60.8575439  22.3772287  20.8091211
  61.4185810  22.3051000  21.5813041  61.0146379  23.2625222  20.4807758
  22.9752541  26.1785650  24.3241262  23.6408234  25.4975224  24.2270231
  23.4735799  26.9935751  24.3846345  69.1076803  55.6535578  24.5234728
  68.9009237  56.4463139  24.0284705  68.7692595  55.8248520  25.4023123
  19.0746331  59.7185659  51.3584280  18.5662448  58.9947033  51.7242146
  18.8296402  60.4759645  51.8899870  27.8543472  77.6351452  40.5567026
  27.8324580  78.1782818  39.7688198  28.2700396  76.8204165  40.2744865
  74.7541809  36.6718626  22.2672987  74.6135998  37.5782537  22.5410199
  73.8830853  36.3565421  22.0264745  65.2521563  14.1519451  53.6259222
  64.6009922  14.1452289  54.3274736  65.3112125  15.0703561  53.3627415
   4.7064283  26.9060373  34.2739916   5.6101364  27.1204376  34.0425253
   4.4216010  27.6338720  34.8265862  73.3227539  32.0130253  62.9808664
  73.6450768  31.1149907  63.0574942  72.7908087  32.0094872  62.1850967
   4.0490010  31.6031981  29.2361569   4.1323844  32.5567579  29.2362165
   3.1242445  31.4436245  29.4248199  65.4692793  61.0836697  20.9153366
  64.7998333  61.5211058  21.4413857  66.2498093  61.0877752  21.4694047
  79.0314960  36.3498139  18.5354567  79.8147631  35.9788275  18.1291449
  79.3186045  36.6180086  19.4083095  69.7550726  10.5893588  36.1419058
  68.9459467  10.2073109  36.4818859  70.4214621   9.9213362  36.3028479
  15.8108377  30.9946775  35.3589630  16.3094258  31.7971873  35.5126452
  15.5151892  30.7260966  36.2288404  66.5093994  71.5137005  38.1441927
  66.3145399  70.6003094  38.3539033  65.6658840  71.9607115  38.2141280
   7.0160210  43.6506081  35.8633137   7.5919533  44.2946625  36.2752962
   6.3203692  44.1725159  35.4634213  59.5874214  52.1976852  28.8287735
  59.1090202  52.0209599  29.6387959  59.6510267  53.1520414  28.7915254
  18.0455339  13.1043935  62.8171682  17.5722146  12.2885346  62.9801798
  18.1047773  13.1604719  61.8634462  21.0448480  42.2104025   2.0386121
  21.5318823  43.0343866   2.0473239  20.3174758  42.3684549   1.4367980
  39.5298243  62.0572758  56.9599724  39.8164392  62.4220610  56.1227083
  39.7688723  61.1316299  56.9123316  46.6966772  39.6128750  64.9178171
  47.0193338  39.0249348  64.2348480  47.4867487  40.0072813  65.2872229
  67.7787304  43.7483549  10.2885973  67.0531464  43.4836817   9.7231698
  68.2286787  42.9302740  10.4996085  48.8192606  28.9907670   2.3883216
  48.1637716  28.7416172   3.0398503  48.9904213  29.9162817   2.5625625
  81.8613243  66.8486977   4.8486426  82.7041912  66.5519524   5.1917762
  81.2352467  66.6471434   5.5440819  27.3966575  62.6389551  31.0349631
  27.2245622  63.5690689  30.8883190  26.7519426  62.1873140  30.4903579
  23.1300950  69.9375582  16.7040920  23.9067698  69.7293520  17.2233808
  22.3942685  69.7325850  17.2809625  76.0570240  74.6124363  25.6919718
  76.2688732  73.9457178  26.3453007  75.1860428  74.9225140  25.9399152
  35.5825782  47.4633884  18.7440217  36.3076186  46.9806623  18.3471274
  34.9360156  46.7909145  18.9584255  70.7195330  28.1501794  29.3124819
  70.1770878  28.7643719  28.8177562  70.3937340  28.2124138  30.2103758
  59.1144133  61.7968369  41.5012264  58.1886196  61.7893219  41.2581539
  59.5234203  61.1685848  40.9060431  66.5400028  73.8853359  49.9198294
  66.7911530  72.9948711  50.1652431  65.6577492  73.7947273  49.5597601
  72.4261570  76.4297009  38.6966920  72.2289419  75.5428410  38.9980531
  73.3810425  76.4549541  38.6351585  20.4186821   2.6343313  18.0276859
  20.2645230   3.5520113  17.8033412  20.8259773   2.6645616  18.8933814
  78.8608265   8.6199003  42.3308992  79.2006540   8.2263315  43.1345463
  77.9817152   8.9186060  42.5636435  73.1240845  59.0735149  28.3278251
  73.4040785  59.4940376  29.1408396  72.5653934  59.7236919  27.9019499
   1.4179209  60.7584381  64.2350292   2.3489606  60.8977890  64.0618849
   0.9728707  61.1584902  63.4879541  42.4723244  53.5124207   3.4884912
  42.9688597  52.7991056   3.8895804  41.7374039  53.0785275   3.0550572
  53.3716440  41.7963934  18.5413074  54.1010189  41.8466330  19.1591394
  53.7779808  41.9061470  17.6816118   5.3036755  30.2931142  32.5512815
   5.0491518  31.1581612  32.2301221   5.5102420  30.4320097  33.4755492
  56.8651199  46.2163115  50.7432365  55.9783697  46.0719442  50.4129887
  56.7879391  46.9847012  51.3087893  81.9326115  53.0984068   5.5977339
  81.0231876  53.3571815   5.7468402  82.0497036  53.1698227   4.6504113
  43.3432770  64.4294739  12.1190202  43.9765120  64.9735260  11.6507769
  42.9539585  65.0179148  12.7658582   5.0986922   2.2958367  31.8347740
   5.3130925   3.0842838  32.3333859   5.9333968   1.8365367  31.7423415
  77.9816771   3.6024138  22.6326036  77.6561689   3.0211556  23.3199263
  77.3386526   3.5236883  21.9279385  59.8182487  57.2239113  57.5508451
  58.8807869  57.4115181  57.5977039  59.9876547  57.0809889  56.6196585
  21.5754986  59.3230247  58.6981249  21.6574073  60.2230263  59.0135813
  21.7314863  58.7826252  59.4726372  13.4092212   6.7363769  42.5336218
  12.5749958   6.2710577  42.5950861  13.8062060   6.4106530  41.7258215
   5.5280155  29.5419836  16.5211141   5.8289540  28.7459278  16.9592500
   4.5746654  29.4585800  16.5011334  71.6743708  55.1053905  37.0050144
  71.8479204  55.7290316  37.7101254  70.7394123  54.9141121  37.0791674
  72.7903605  66.1263037  42.2484303  73.2066441  65.6318951  42.9544783
  72.5999498  65.4710579  41.5771437  76.6869450  20.7407117  49.4240904
  77.2450733  21.0638261  48.7167597  77.0008230  19.8517513  49.5898008
  30.9113336  46.4834023   8.9125222  30.5281591  47.1260977   8.3155721
  30.5060172  45.6530142   8.6627179  52.5111246  57.5249338  49.2914295
  51.6960049  57.7362156  48.8362646  52.4284220  56.5973234  49.5126343
  10.2395082  46.7298651  27.4832153  10.4442668  46.5075588  26.5749836
   9.9522108  47.6422358  27.4475527  14.4845688  72.2734022  14.5728695
  15.1873589  71.7187357  14.9114907  14.9286914  73.0667734  14.2736304
  73.6156178  44.3508244  15.9677255  73.6883163  44.8200560  15.1366031
  72.8370714  43.8032675  15.8663273  21.5145540  24.9326563  27.6086807
  22.3163438  24.8914361  28.1298971  21.8185091  24.9298000  26.7010260
  11.6001332  65.2572966  46.7908096  11.4401686  66.1990976  46.8512344
  12.4368083  65.1854515  46.3314152  10.3255272  21.4748073  39.5060205
  11.1673319  21.8828392  39.7087622  10.5157888  20.8814430  38.7794161
  61.5075684  41.2313986  23.6651731  61.2249374  40.7006311  22.9204321
  61.4258814  42.1349764  23.3600426  24.4270182  50.3190327  37.9568958
  23.9297938  49.5892954  37.5874567  24.9693584  50.6305170  37.2322726
  72.3887157  48.9375305  65.1131296  72.4242830  48.2572031  64.4407320
  73.2615519  49.3303204  65.1028395  78.7459087  10.2562439  30.2565622
  79.3456078  10.8878577  29.8594975  79.3157911   9.5682496  30.6002617
  35.3794503   4.0068552  43.9568281  35.5416536   3.1682771  43.5247326
  34.4792533   4.2287529  43.7188435  22.8168130  53.1407785  18.8957739
  22.0828629  53.7366152  19.0458667  22.5426626  52.6059818  18.1507456
  10.1194489  52.2698641  52.4168491  10.4605961  52.7058315  51.6359615
  10.8690691  51.7912340  52.7707100  22.9714274  59.6148586  17.9754627
  23.5015392  59.6314430  18.7722933  22.4570298  58.8107729  18.0466986
   9.4679630  40.4315186  46.9468784   9.0249008  41.2617493  46.7718172
   8.9579982  40.0317907  47.6514244  68.6396360  68.7490654  34.1262603
  68.7178421  68.8460732  33.1772041  68.9700222  67.8686619  34.3050599
  11.4320195  54.0112782  22.6735258  11.1801362  54.0015793  21.7501140
  12.0012069  54.7761536  22.7585077  22.3215032  40.9954977   9.7185546
  21.7223310  41.2300539   9.0098882  22.3571777  40.0392437   9.6953988
  81.0923195  32.6568317  24.6959305  81.0419655  32.8924823  23.7695599
  81.0256386  33.4916806  25.1594090  16.3596392   7.6432109  35.2184033
  15.8444262   8.3313125  35.6394768  16.6409743   7.0796353  35.9391427
  65.6920815  26.5296173  29.5718098  65.8982658  27.4643278  29.5660019
  65.2427912  26.3886309  30.4051733  57.4976397  54.5439625  60.6611443
  57.8876019  54.4759989  59.7896290  57.6182318  53.6758137  61.0458612
  61.8185091  58.3431673  61.2619591  61.2010479  58.9160538  60.8072376
  61.7392302  57.5013781  60.8132458  60.1699162  71.6253901  30.6509185
  59.6884203  72.3933601  30.3433084  60.5162668  71.2246561  29.8536205
  48.7720680  75.0047398  22.3991656  49.1748428  75.8577299  22.5616813
  48.8552856  74.8767090  21.4542246  33.0563712  17.3447514  46.8580675
  32.3123264  17.9456270  46.8978119  33.3203769  17.2297382  47.7709246
  17.2639310   0.5336991  26.0601306  16.7723215   1.2791213  25.7153177
  16.7659831  -0.2332062  25.7770491   0.3603299  56.8531847  52.6193953
   1.0144477  57.3651314  52.1437168   0.6054954  56.9473696  53.5398579
   1.3928974  52.0213223   7.5392944   1.4599445  51.1840916   7.9984021
   0.7195401  51.8766975   6.8745339  64.4167089  54.5202923  33.4723449
  63.6631966  53.9763117  33.7015533  64.9050045  54.6101761  34.2907095
   4.3612045  42.5866508  33.5650444   4.2401549  43.4153938  33.1016159
   3.8416415  41.9556093  33.0669761   5.5695248  59.1682196  26.3185334
   6.5032935  59.0715456  26.1315513   5.4176813  60.1130724  26.2978601
  52.2040176  15.8138824  63.3365154  52.6336718  16.5906787  63.6945915
  52.8368759  15.1079452  63.4683323   0.4342831  31.9130373  26.5150094
   0.1488481  31.1979485  27.0836973  -0.1657606  31.8806267  25.7699394
  63.6623621  37.4478531  24.3804669  63.9933491  38.3290815  24.2069340
  64.2382336  36.8722820  23.8771605  12.4516964  36.0738015  33.3915925
  12.6744223  36.9879556  33.2156682  13.1917441  35.5758667  33.0442882
  61.3104010  58.2602596  31.6415358  62.1860456  57.9774952  31.9052124
  60.8273363  57.4456406  31.5026903  42.1692085   6.8625927  36.8897223
  42.9029703   6.3259983  36.5899038  42.1403074   6.7215776  37.8360367
  15.3067887  62.5436497   1.9430746  15.8972454  61.8539095   2.2461425
  15.0029171  62.2400427   1.0876694  48.6898470  22.0183659  64.9898911
  48.7409973  21.1413097  64.6099091  49.6024752  22.2835541  65.1039982
  21.2815619  68.9335155  25.3785896  20.6143379  69.2610264  24.7754455
  21.7007351  68.2150936  24.9048853  51.5402794  34.3421149  46.7397308
  50.6056404  34.1470885  46.6716003  51.9654512  33.6630225  46.2159967
  51.3694096  57.6454687  35.3096223  52.0643234  57.0703411  35.6298566
  51.7274809  58.5283232  35.4022527  32.9800272   7.2582668  47.2451115
  32.7755904   8.1933671  47.2500944  32.3964453   6.8890405  46.5822887
  76.5150833  69.2522192  27.2785997  75.9375906  68.4916925  27.2127843
  77.3966599  68.8928843  27.1789193  40.7850885  23.9442563   2.2292285
  40.5991602  23.0727243   1.8798093  41.7387152  24.0184569   2.1928538
  74.4210386  73.0092669  37.3294759  73.5751057  72.7217674  37.6729417
  74.5291424  72.5166798  36.5159035  61.0598993   8.3222699  31.9185710
  60.4704571   7.7591431  31.4168954  61.2028265   9.0822935  31.3545084
   6.8857276  67.9339600  47.4210453   6.0868150  67.8520250  46.9002247
   7.5426131  67.4389124  46.9314957  73.7887239   5.7261246   6.5648502
  74.5650768   5.5638111   6.0289782  73.6716747   6.6756868   6.5354848
  39.4231939  62.7227736  13.9467466  39.5199537  63.0916595  13.0687988
  38.5281396  62.9453945  14.2027712  11.4275813  23.3506036  18.5024166
  11.4272332  23.8379669  17.6785803  11.7872369  22.4935746  18.2735491
   4.2283723  30.2874160   5.7956523   4.3095976  30.7475162   4.9602231
   5.1152539  29.9836159   5.9889907  64.9810314  52.4476719  28.5467172
  64.4101763  52.0931387  29.2283773  64.3799734  52.7882671  27.8841805
  31.1878252   7.9310137   2.7225679  31.4486027   8.8202864   2.4829409
  31.9065380   7.6090568   3.2666528  37.2446084  25.5710220  46.3295221
  37.2417212  25.9509325  47.2080994  38.0152535  25.9503412  45.9070826
  36.7928505  59.9888086  30.5928278  37.1114397  60.6972694  31.1521268
  35.9752226  60.3236151  30.2245617  82.3567677  43.8823271  62.5576448
  81.4113426  43.7523413  62.6319075  82.4652863  44.8323965  62.5149298
  74.2128762  77.6962756   5.0921452  74.2402837  76.8747430   5.5826187
  74.0682885  77.4286671   4.1845593  69.8474360   3.7211373  48.3404970
  69.8039198   4.4840056  47.7639771  69.1846848   3.8890809  49.0104103
  74.1841698   0.3988827  62.0876074  74.2825603   0.7525964  61.2036180
  73.4239817  -0.1800044  62.0307112  40.3023911   6.9550169  49.7220659
  39.9068308   7.7779615  50.0093412  39.5878863   6.4818501  49.2956495
   0.3676997  73.3980274  27.8787804   0.7744442  73.4247971  27.0127130
  -0.5586725  73.2328558  27.7033234  44.2886591  45.7235146  49.7213221
  43.9747047  46.5698862  49.4030142  44.8788357  45.9427309  50.4423428
  58.9357138  34.7150040  56.7265511  57.9796028  34.6700311  56.7186403
  59.1311455  35.6512928  56.7640018  78.3494854  30.6098628  32.9862475
  79.2245579  30.3599787  32.6895452  78.1412745  29.9794602  33.6757946
   5.6721950  53.7483788  58.4199476   6.5947336  53.4934044  58.4079933
   5.2728981  53.1722546  59.0717697  20.8015680  63.3993387   9.3424171
  19.8612642  63.2657003   9.4615841  21.0811162  63.8556290  10.1360714
  20.8494568  40.2846193  39.6973515  21.5378594  40.0075531  40.3019762
  21.0691667  41.1913967  39.4835424  64.8303890  43.2769775  64.2511511
  64.0552378  43.1495667  64.7980881  64.7494078  44.1736460  63.9260960
  72.8480053   0.1030990  22.7590823  71.9577742   0.0788422  22.4081874
  72.7441025  -0.0951071  23.6897540  58.6561012  57.5896788   5.4998451
  59.3834877  57.0758104   5.1490098  58.5679102  58.3250141   4.8934296
  46.7229748  17.4333024   6.6065699  46.5015793  18.0218339   5.8848727
  47.4302387  17.8801596   7.0716774   5.0119871  28.4336209  42.6145697
   4.4343147  28.9999723  42.1029329   5.8867693  28.7971807  42.4774122
  46.5630198   5.6923741  32.8173637  47.2897673   6.2901098  32.6419115
  45.7783222   6.2095684  32.6357222  22.3789430  74.3231249  23.2900977
  22.7707815  74.9822998  22.7172232  21.5480375  74.1031551  22.8688574
  25.9052730  76.3037491   5.3735232  25.9751225  77.2046852   5.0578219
  26.3692379  75.7834578   4.7175777  47.7144957  44.5163107  12.7803540
  47.7255869  45.0476551  13.5764599  46.9210625  43.9864016  12.8571045
  59.7199869  12.1259165   2.0085716  59.7225237  12.2055459   2.9624504
  58.8483334  11.7907500   1.7985235  20.7037878  46.6251707  57.0654535
  20.6114030  45.6954384  56.8573713  21.2273836  46.6404295  57.8666067
  11.5241098  49.6396160   3.4665063  11.4543319  50.1706934   2.6732093
  11.4734423  50.2719736   4.1832960  63.9749718   6.7450607  17.9016876
  64.2110157   6.6449291  18.8239074  63.7272501   7.6657146  17.8164577
  78.4756088  71.3923216  58.3391762  79.1478682  71.4814663  59.0147161
  78.4570551  72.2455311  57.9056787   0.4709465  27.7066088  25.2231741
  -0.0326956  28.4397388  24.8694873   0.9699453  28.0857468  25.9466982
  33.7630510  52.7699375  18.9948571  33.6625457  53.1063890  19.8853230
  33.5970998  51.8305254  19.0736127  45.0569677  43.8506889  13.9346874
  45.1618862  44.8007965  13.9848745  45.1267242  43.5537624  14.8419893
  61.8927526  21.3687849   6.4396155  61.2414694  20.9551406   5.8730781
  62.1066284  20.6980395   7.0881456  77.7153349  21.0975742  13.8345265
  78.4643078  21.5000653  13.3949053  77.9201889  21.1653590  14.7670889
  46.2934017  33.0213332  16.5844691  46.1504364  32.4419665  17.3328865
  46.4006090  32.4290991  15.8401597   2.8656158  29.8026681  16.2640858
   2.3627466  29.5021224  15.5070996   2.2844590  29.6574306  17.0106745
  73.1820774  13.7541926  24.7702694  73.0767107  14.5999300  24.3345404
  74.0796947  13.4905887  24.5677185   5.1533991   1.3537182   2.8102270
   5.3043741   0.4625684   2.4951230   5.6257355   1.3970204   3.6416444
  26.8160367  47.8308249   1.3351713  27.4893498  47.2551489   1.6977723
  26.0228014  47.2951794   1.3254571  31.2515664  71.5691185  19.5822906
  30.4265428  71.9439840  19.8905814  31.3612843  71.9243956  18.7002611
  69.7168636  18.1298780  18.0748093  69.9306631  17.5237107  17.3655260
  68.8250256  17.8943384  18.3305085   1.4353320  59.2325878  45.4356813
   2.0702608  59.9487591  45.4215765   0.6043573  59.6535158  45.6559801
  54.9371386  51.4845133   6.8852305  55.8730555  51.6317654   6.7488152
  54.6500587  52.2346258   7.4059498  68.1139994  39.6012616   4.4898629
  68.0332947  39.9188757   3.5905078  68.9247751  39.9956584   4.8113072
  61.8317842  15.8282554  24.0134740  62.3257923  16.6146600  23.7816215
  62.4024630  15.3572571  24.6206951  76.7810106  24.2538095  20.6746340
  76.2837553  23.5219145  21.0397363  76.6795540  24.1633248  19.7271359
  79.6520042  10.0582659  55.9703302  80.3661537  10.1244891  56.6042328
  80.0734806  10.1861072  55.1204777  80.2083874  30.0292706  57.3501301
  80.5991459  29.3892837  57.9450750  80.5893230  29.8259425  56.4958620
  42.0734739  23.3816051   7.5591677  42.6321030  24.1324449   7.3581499
  42.5463438  22.6292157   7.2034460  17.5077891  33.2277107  38.1446171
  17.0582867  33.5582209  37.3668361  17.5916553  33.9914727  38.7154627
  53.3631229  13.8242590  22.5955534  52.8426552  13.9466488  21.8015981
  53.0645466  14.5154619  23.1865883  54.9832869  74.1535282  16.7610514
  55.2382946  73.4954214  16.1144471  54.0461969  74.2826128  16.6146600
  28.3496356  16.8001413   7.4292749  29.2034721  17.0658720   7.7707195
  28.2318854  17.3293638   6.6404206  51.6414595  70.4103613  65.2433920
  51.8456984  69.8172903  64.5203543  51.3835764  69.8325157  65.9615993
  53.2875299  26.8557453  26.1216283  54.1373014  26.5657353  26.4533091
  52.6512575  26.4721489  26.7251539  45.5395317  28.8482094   8.5387290
  45.7538033  29.3067265   9.3511826  46.2531281  29.0727949   7.9415953
  15.1237726  10.5044663  63.0901670  15.2709198  10.9595382  62.2610140
  14.3323684   9.9867922  62.9420948  39.0297174   4.1771969  45.9079742
  38.4376001   4.9068755  45.7257700  39.5157599   4.0538222  45.0926399
  81.5849304  40.3594971   5.7279372  81.3483620  40.9166098   6.4694852
  82.0170593  39.6032047   6.1248195  12.3961723  21.9372249  52.6727676
  12.1930254  22.6552081  52.0732117  11.6228163  21.8663812  53.2323503
  46.6139412  28.1554079   3.8958216  46.7774582  28.6185789   4.7173855
  46.2540054  28.8230968   3.3119839  78.2841063  15.1596332  17.2091830
  77.9943895  15.5166781  18.0487156  77.9169083  15.7553005  16.5560532
  57.9413795  12.6232612  30.9165454  58.8382339  12.7976012  31.2020206
  57.8530979  11.6717505  30.9719086  69.8085785  31.4131021  57.1902609
  69.8034382  32.3545337  57.0173120  68.9347649  31.2280297  57.5344038
  25.4563999  75.2979755  11.6718352  25.5197906  74.3783998  11.9298971
  24.9949336  75.2801847  10.8334064  61.3678217  24.6421504  33.8831162
  61.0943937  25.1529789  33.1211948  60.6539774  24.7489715  34.5118046
  23.3770013  36.8806767  14.3784964  23.0923462  37.3262906  13.5806048
  22.6479721  36.9928336  14.9885547  79.8974991  76.5659952  31.4456367
  80.6970787  77.0575857  31.6333461  79.9250793  75.8240700  32.0498061
  53.2976723   4.0134996  14.7663748  52.7482510   4.6563414  15.2148402
  54.0350771   4.5222649  14.4292903  66.2899971  18.2598615  48.1598949
  65.4517174  17.8916967  48.4391403  66.0698605  19.1284227  47.8231859
  71.6802025  53.7261248  62.7282476  72.0114803  53.0709076  63.3423996
  72.2226381  53.6180210  61.9470263  24.2256355  38.9815474  35.0696588
  23.8122749  38.2445264  34.6200347  24.3496871  38.6750436  35.9679317
  20.4189682  76.1172152  32.1549320  20.1655865  76.9678545  32.5133157
  19.7576737  75.5104780  32.4877930  78.1327486  62.8527069  40.9304619
  77.5060606  63.0400991  40.2316189  78.9723206  63.1592083  40.5878162
  46.0647202  73.4392309  22.9565215  46.6438246  74.2013693  22.9523826
  45.9208822  73.2426834  22.0308280   9.2252570   2.1256344  37.5124335
   9.5431769   2.4034537  38.3714890   8.7586421   1.3074292  37.6828527
  28.4707808   8.2599568  30.7021809  28.8186455   8.0240679  31.5621686
  28.5240555   9.2153168  30.6760955  75.7102108  12.9090810  29.5991135
  76.2163353  12.5147963  30.3094721  74.9550152  13.3048928  30.0341392
  63.1986475  21.3774180  29.6092296  63.2539225  22.0898962  28.9723992
  63.8514709  20.7421422  29.3151569  71.0637426  22.7343583   9.4165039
  70.4979229  21.9628406   9.3875498  70.6859207  23.2828045  10.1040256
  62.2524834  50.2013063  32.3850060  61.8052578  49.9374437  31.5808940
  61.5628624  50.5821800  32.9286861  64.7289896   8.5862893  51.1376667
  64.8213530   8.1480843  50.2916908  65.1048231   7.9717678  51.7680168
  68.7161446  15.9862626  21.0885763  68.3307695  15.1688349  21.4040565
  68.4633207  16.0300183  20.1664066   0.4366592   9.6096867  31.8300486
   0.9113060   9.6426946  32.6606226   0.9245794  10.1961112  31.2518859
  32.2190833  26.7714381  26.8368888  32.8063107  26.9022894  27.5813842
  31.3714528  26.5693879  27.2330332  39.7418189  71.1564350  10.5572391
  39.6212983  71.1932421   9.6083701  40.6185055  70.7901239  10.6732929
  66.8703079  14.2550397  49.1173363  65.9193134  14.1519451  49.0824795
  67.1104050  13.9663434  49.9978161  78.6095142  54.5720959  54.3444157
  77.8718376  54.1439629  53.9099455  78.5907841  55.4715633  54.0175533
  43.1697416   0.5865356   6.4013588  43.1307888   1.2220205   7.1161133
  43.7787724  -0.0842432   6.7101806  11.5203381  27.9551005   2.0367108
  10.5935776  27.8114343   2.2282989  11.9318628  28.0427790   2.8964734
  44.3270254  11.8714106  20.0354218  44.1707945  12.7529860  19.6968257
  44.0926123  11.9256485  20.9618902  51.6327620   1.5997851  54.7910166
  51.5217829   1.8739966  55.7013607  50.9432268   0.9508999  54.6505737
  59.1277599  17.6530564   3.7994188  58.4393406  17.6459789   3.1343946
  59.4286966  16.7454052   3.8422945  65.1270294  55.7270908  62.8785133
  64.5000982  56.4502764  62.8647232  65.9837675  56.1532545  62.9032278
  68.1685734   3.8284373   3.3627346  67.9628897   3.4200665   2.5218070
  68.7814856   3.2227823   3.7795675  62.4125195  14.9427855  34.8482537
  62.0308208  15.5714107  34.2355800  62.4740267  14.1285837  34.3487287
  80.4801464   6.1605704  17.3097789  79.8852301   6.8846744  17.5046647
  79.9507809   5.3738570  17.4404955   1.8474549   5.2692163  22.3987985
   2.1791942   4.6804905  21.7208719   2.6074469   5.7916057  22.6552200
  23.3209682  57.0142412  56.7708731  22.5446415  56.6187763  56.3744402
  23.6264944  56.3620996  57.4014282  47.9202747   5.1788390  20.2183032
  48.6987972   5.2944034  20.7630801  47.5305557   6.0517323  20.1692343
   9.4794291  70.2979946  22.2909784   8.8433331  70.0416327  22.9587293
   9.0272260  70.9633970  21.7723393  16.9325852  66.4509153  63.3309031
  16.5420651  66.0107327  62.5759459  16.3291407  67.1669865  63.5292149
  35.5053306   7.0315808  -0.3327052  34.8266721   6.8860143   0.3264337
  36.3225222   7.0517069   0.1653139  78.4585524  54.7060871  13.8602066
  78.1997156  54.4157648  12.9855931  77.7201414  54.4667578  14.4203031
  58.9413214  71.4430523   4.0531468  58.0847645  71.8684149   4.0129542
  59.5664454  72.1667719   4.0941477  51.8194723  18.7637293  34.3475604
  51.9682646  17.9452252  33.8741207  51.7165565  19.4224119  33.6607003
   1.2353918  19.7561598   7.6782072   1.0561413  20.6963634   7.6672280
   1.9756944  19.6604538   8.2773930  12.0179296   4.1654870  41.9348669
  12.1679068   3.8973400  42.8414202  11.7104292   3.3712819  41.4979315
  69.7966957  10.8683860  10.0730979  69.1179609  10.2447355   9.8150116
  69.5328140  11.1623812  10.9449720   2.7909318  76.0697603  17.1646476
   3.6564434  76.0740423  16.7558646   2.1857113  75.9019661  16.4423013
  57.9855490  66.0085678  39.0533805  58.3102417  65.7507372  39.9161267
  58.6869717  65.7627583  38.4502077   5.7610869  12.4848735  19.7549891
   5.0267369  12.0408440  19.3309617   6.2688541  12.8523028  19.0315259
  36.9265676  56.7507124  25.2255082  36.6342616  56.9493294  24.3359351
  37.3456192  55.8930874  25.1540518  40.9920025   7.0162445   6.2086117
  41.4836025   7.7194834   5.7843310  41.4261961   6.8962657   7.0531905
  50.8212090  74.1613007   1.4495191  51.3392115  74.8687506   1.0655677
  49.9547482  74.2570972   1.0541676  26.4592814  53.1201601  24.2961907
  25.8933997  52.8328371  23.5796309  26.2162828  54.0345430  24.4413948
  17.7803946  62.3118591   7.3418015  18.2605088  63.0957842   7.6086044
  17.0801902  62.2279644   7.9890317  51.8062544  57.6910257  13.9915478
  52.5333214  57.3749876  13.4551525  51.0222292  57.3753309  13.5422409
   8.3999676  36.9524479  47.1881771   9.1465044  37.2845149  46.6895342
   8.7620270  36.2407756  47.7160645  25.2388525  44.2000818  14.5656753
  25.6398058  43.6743784  13.8735020  25.9605002  44.4027901  15.1609612
  53.7063980  12.1514368  46.8143511  52.8369951  11.7521608  46.8451262
  54.3022108  11.4481807  47.0725584  13.4746242  18.8666928  64.0852070
  13.2554877  19.6710539  63.6148691  14.3544436  18.6436296  63.7812424
  55.2387190  29.2619801  51.4617443  54.5654964  28.8367891  51.9929886
  54.7713137  29.5722270  50.6861734   2.5224870   2.5152862   3.4110069
   3.2006675   1.8735966   3.1999671   2.2343379   2.8476256   2.5608581
  75.8875227  37.3032880  11.9930756  75.6640530  36.3725424  11.9902444
  76.4369011  37.4153423  12.7688694   1.5980260  14.4099867  43.3579397
   2.2933049  14.9604702  43.7181997   0.8060633  14.9416661  43.4375858
  42.9169893  14.7073925  19.4008160  42.1616554  14.5638967  19.9710059
  43.3570862  15.4711473  19.7739434  32.4633431  67.5545549  16.6510534
  32.9038310  68.3939743  16.7836428  31.6331124  67.6431704  17.1191287
   2.7618268  71.7306232  41.9807720   2.6883867  72.4134684  42.6475239
   3.6874551  71.7324877  41.7369699  72.1040154   0.2085521  28.0307579
  71.1891508   0.4701367  27.9267049  72.4830294   0.8822451  28.5953116
  44.7278357  51.3845253  45.8655882  44.5491409  52.2839022  45.5909538
  45.6064844  51.4196539  46.2437057  44.6456575   8.2634199  24.5378447
  45.5779696   8.0594391  24.6114326  44.2067814   7.5467789  24.9961543
  47.0402765  65.6441450  16.8627846  46.2085581  65.5524635  16.3979506
  47.6059866  64.9761391  16.4755297  55.4057598   7.2258896  43.0377436
  54.5345831   7.0587301  42.6781082  55.8127260   6.3611698  43.0913210
  16.1238396   6.9454974  59.9577332  16.6962397   7.3918468  59.3337440
  15.3986311   7.5548059  60.0957441  50.7438469  43.9545488   9.8748988
  51.0714340  43.3090973  10.5012465  51.2160540  44.7587347  10.0906157
  77.8071976  22.4186563  25.5045509  78.6133337  22.4308276  24.9885726
  77.6366520  23.3391547  25.7041311   6.2956536  59.6894026  56.1423969
   5.4517394  59.2782402  56.3294411   6.7886841  59.6063662  56.9586468
  70.0286579  45.4331160  32.3833656  70.7947731  45.5833864  32.9371905
  69.4763565  44.8411560  32.8940296  71.8925238  23.1894779  27.1079302
  71.0951233  22.6738596  26.9874287  71.5840054  24.0352392  27.4330997
  10.8096611  19.0584373  54.5446301  10.8016622  19.8950839  54.0796661
   9.8853785  18.8560891  54.6895027  37.5500560   2.9526585  58.7602377
  36.9526386   3.6952603  58.8489342  38.4148598   3.3512729  58.6630011
  42.0740474  77.3102568   0.1842509  41.2941552  77.4028586   0.7314502
  41.7324151  77.2023605  -0.7033719   2.4900858  57.4117231  55.1908302
   3.0707842  57.7618122  55.8664465   2.2973070  56.5196609  55.4794359
  47.2104168  21.5552878   1.2556843  47.4629307  22.4778438   1.2188523
  47.2901058  21.2489057   0.3523511  27.3476553  67.2716236  13.5615194
  27.8236508  66.6152048  14.0702188  27.6346111  68.1098080  13.9239144
   1.2093095   6.9080222  27.5278521   1.5754642   6.3877672  28.2430434
   1.3116309   6.3554728  26.7529655  11.4327359  17.7457345  22.6147509
  12.2122490  18.1832337  22.9570746  11.5119481  16.8419015  22.9197812
  68.4661388  10.0396287  17.6950574  68.0881977   9.8252946  18.5479665
  69.2092752  10.6076670  17.8983068  16.9690800  46.0031080  59.4834661
  16.9958138  46.3632822  60.3699207  16.6722953  46.7314434  58.9378643
  49.7223425   8.1774938  56.4094162  49.0523624   7.9580283  57.0568705
  50.4179907   8.5955650  56.9168854  56.1913252  51.8660688  61.4730358
  56.9971848  51.8429661  60.9570026  56.4194727  51.4284229  62.2931862
  74.0248108  52.4331141  43.6106157  73.9488935  51.5200663  43.8877678
  74.9574614  52.6318645  43.6936283  70.1868629  51.1483145  57.5615311
  70.4769468  51.9585180  57.1424198  70.0421906  50.5415630  56.8354797
  67.5140142  50.7217026   7.3941249  66.6147566  51.0348034   7.2965097
  67.5051594  49.8445845   7.0109499  62.2457457  63.5099220  48.3921146
  61.7375660  63.0402756  49.0534973  62.9067516  62.8795958  48.1057787
  15.7964456  31.4274883  55.3876925  15.1483810  30.8353329  55.0061226
  15.4988909  32.3019791  55.1367807   4.7535712  36.7882371  16.5565443
   4.8428667  37.7251005  16.3817728   4.6337247  36.3937926  15.6926680
  74.1768503  37.2636724   5.7112360  74.8806095  37.8444934   5.4220963
  73.8704300  36.8408704   4.9090034   8.7096852  33.2469273  10.2260435
   8.9445555  34.1561365  10.0405526   7.7623463  33.2124352  10.0934100
  30.5577707  67.5317526  22.9955029  29.9623489  68.2099962  23.3143902
  31.3926792  67.7265358  23.4212017  71.3818455  20.7484722   3.9545724
  71.3479233  21.0469389   4.8634171  71.1679554  21.5260577   3.4389722
  39.6510339  20.9697127   7.0808947  39.8858523  21.6247773   6.4236420
  40.4076624  20.3845143   7.1167845  14.3418276  71.5589237  65.7453346
  15.2881193  71.5479755  65.8890200  13.9655280  71.4925337  66.6229582
  75.3408718  16.1949384   0.7916460  75.4565859  17.0975029   1.0886625
  76.1232615  15.7386935   1.1013841  56.8791533  10.8973062  54.9723053
  56.5918398  11.2345469  54.1238070  56.4979887  11.4997864  55.6110239
  76.4375496  19.2182422  35.0906062  77.3762226  19.2220247  34.9032283
  76.3841200  19.2077601  36.0462570  23.4497499  21.0065484  36.2330413
  24.3051577  20.6924677  36.5260625  23.2009459  21.6645074  36.8822074
  67.0521832  49.7736597  52.1086884  66.6854572  49.1261482  51.5066290
  67.9717016  49.8451042  51.8525505  50.0028372  37.0793414   8.2669914
  50.1887321  37.5849724   9.0582001  49.0629768  36.9032812   8.3105648
  69.5584774  28.6790442  32.2240353  70.0881481  29.2265606  32.8036141
  68.6556244  28.9370322  32.4098587  12.4787796  47.7630472  28.5597014
  11.7034733  47.3128128  28.2244062  12.4697292  48.6140728  28.1216359
  17.2870815  76.4196587  39.7708988  17.8174734  76.2443256  40.5481863
  17.6581073  77.2220230  39.4037652   5.3862333  25.3913355  18.4886086
   5.8443159  25.5955482  19.3038929   4.4895089  25.6920242  18.6359310
  79.4919014  10.9808886  34.5271087  79.5545530  11.7115057  35.1423359
  78.8281202  11.2564015  33.8948750  25.3484440   7.6025432  24.5757580
  25.9982371   6.9119960  24.4448280  24.5355392   7.1337914  24.7646761
   9.8774660  24.1623902  10.7600176  10.6238508  24.7069073  10.5097353
   9.9799716  24.0343046  11.7030549  70.8093214  13.4601462  17.0963812
  70.1546717  12.8998184  16.6796041  71.1266327  12.9462314  17.8389668
   3.6421707  26.1598635  43.5409546   3.9648426  27.0229149  43.2816172
   4.2455453  25.8748460  44.2271996  54.8900747  74.7571182  36.9809890
  54.5140076  74.1452217  36.3482261  55.8361578  74.6412230  36.8930912
  16.1478066  64.9578524  61.0926342  16.6337872  64.1429329  60.9662962
  15.2489793  64.6766424  61.2636995  76.0413361  38.9703369  46.1692286
  75.6842661  39.8584366  46.1657333  75.7340813  38.5854268  45.3484535
   2.1143463  16.9284749  20.3432941   1.7574736  16.7321968  21.2095213
   2.7342391  16.2192035  20.1733017  75.3604841  12.3702991   4.0325728
  75.0716305  13.2481217   4.2820197  75.6003237  12.4503911   3.1093752
  58.0543709  71.4439058  24.8720717  57.7201653  71.9682360  24.1443229
  57.4396801  71.6076040  25.5873275  80.9941959  31.0394740  18.3284283
  80.4456329  31.7135382  17.9272461  80.3728867  30.4377961  18.7385261
  31.6697907   4.3846223  55.7739210  32.1285892   5.1211858  56.1779165
  30.7945347   4.4063470  56.1608171  16.4387703  14.2561877  20.5130506
  16.6794550  15.1821017  20.4816604  15.9954560  14.1523635  21.3550282
  53.7671852  24.0634036  16.3474476  53.8336945  24.7836113  16.9744325
  54.3799925  23.4044385  16.6737342  72.2577477  20.8603930  32.0051551
  72.2274685  20.8585668  31.0484362  72.9572296  20.2446508  32.2238255
  76.8282413  51.6164303  35.6555986  76.4818811  52.0375299  34.8688722
  77.7771282  51.6172886  35.5297136   2.5900844   7.6758593  37.5034595
   3.4789151   7.6587814  37.1486068   2.2196032   6.8268162  37.2624159
  51.0496235  20.6427622  16.5789139  50.3385782  21.1866498  16.2400508
  51.0089827  20.7594895  17.5281012  24.6091104  19.3075871   8.0008996
  25.3859615  19.7876239   7.7140188  23.9084768  19.9597347   7.9940212
  45.0986767  14.1630125  17.6636231  44.2992926  14.3987393  18.1344140
  44.8088169  13.5419071  16.9954622  11.2687540  51.8031311  34.2467642
  11.6794586  51.9555712  35.0978327  11.8434381  51.1723757  33.8130355
  62.5763416  25.5404568  52.6606846  62.8066826  25.6100965  53.5871410
  62.7895737  24.6367478  52.4281406  61.4586687  36.9652319  22.4064136
  62.2937202  37.1280479  22.8450608  61.6437626  36.2511492  21.7964482
  57.8786802  65.5739737  10.7457757  58.7863398  65.5785084  10.4418528
  57.9456902  65.5904818  11.7004848  81.9904613  53.6350060  56.7753839
  81.4823818  54.2657900  57.2854710  81.3322544  53.0867147  56.3483334
  53.6394644  52.9608631  16.3886309  53.6637497  52.0341253  16.6269600
  53.4691811  53.4158850  17.2133672   9.5575309  66.8432951  54.2375040
  10.0265944  66.4051819  53.5273886  10.0076020  67.6818037  54.3403196
  68.6450863  13.8664877   4.4849926  68.8848877  14.1780567   3.6122665
  69.2306662  13.1262577   4.6443251  59.5796204  66.2463474  31.1049390
  60.1473713  66.8400574  30.6136131  59.3258572  65.5769968  30.4694843
   8.6781639  18.3037841   5.4580563   9.0252864  18.4061146   6.3442087
   8.8455647  19.1466630   5.0364345  70.8456039   0.9776431  50.0320482
  71.5199375   1.6527002  49.9558640  70.9364414   0.6481866  50.9261608
  82.1384239  38.9721656  25.3931379  82.6401043  38.7009263  26.1618876
  81.6866493  39.7690272  25.6708956  74.9872446  13.2553065  14.3103528
  75.0362492  12.5374317  14.9416113  74.0511131  13.4360671  14.2254090
   0.8608489  16.4459920  23.0648971   0.8781738  16.4837515  24.0211940
   0.6923167  15.5252874  22.8645658  70.9039736  16.2704396  16.6211522
  71.4540863  16.1913788  15.8418226  70.6339836  15.3729701  16.8157923
  67.2802782  37.9408526   0.7106379  67.4412537  37.5372362   1.5635228
  67.4760532  37.2498369   0.0778662   6.9690931  66.7514372  29.6685529
   6.1904699  67.3045111  29.6046066   6.7477846  65.9672737  29.1662192
  67.7391243  29.7835994  18.0983996  67.7599001  30.3762913  17.3470557
  68.6115789  29.8566985  18.4853244  51.3339996  69.3497705  25.8574224
  51.2126446  70.2440882  26.1763191  51.8526125  68.9210367  26.5382028
  78.0007792  31.9960594  12.9729223  78.4000731  31.5928531  13.7437797
  77.1241379  32.2492957  13.2620621  10.9744108  37.8842044  28.5473418
  10.1573539  38.1213403  28.1086898  10.7689917  37.0746660  29.0149760
  64.1206741  17.9946303  12.3210883  64.4909859  18.0846393  13.1991529
  63.6715364  17.1494770  12.3360431  10.0121844  73.6063528  10.2509868
  10.5272889  74.2604733   9.7787344  10.4253840  73.5526323  11.1127365
  62.1134377  19.6219456  40.8763027  62.1517611  20.4665661  41.3250589
  62.5339746  19.7804558  40.0311661  60.4861927  14.8442149  44.6218586
  60.8185816  15.7109141  44.8554802  60.6512880  14.7697341  43.6819506
  66.0462761  29.2460203  26.6268587  65.4569006  29.7659159  27.1732807
  65.7068825  28.3532834  26.6906118  12.8170753  26.4195514  24.9366736
  12.0239544  26.1842918  24.4551706  12.9849839  25.6670356  25.5039096
  47.9229450  14.7505105  12.3806798  48.7110329  14.8888791  11.8553197
  47.9424667  15.4524052  13.0312145   4.3655217   4.8516896   4.7732544
   3.7674174   4.1317162   4.5729008   3.9603257   5.3001809   5.5154830
   7.1871483  28.7003851  21.4647174   7.9328942  29.2962360  21.3936019
   6.4227986  29.2758107  21.4945006   8.3275008  39.6892667  43.3992052
   9.2693228  39.8329329  43.3066607   8.1563562  39.8165393  44.3323421
   5.4736406  16.7110729  40.2372217   6.2741709  16.4912593  39.7607112
   5.5050337  16.1652029  41.0228920  82.3528385  17.2764969  29.3171859
  81.5288925  17.7202296  29.1160941  82.3869419  17.2565758  30.2735710
  66.9098568  47.3534012  29.0118790  67.4135256  47.3107624  28.1990242
  66.4579201  48.1961346  28.9696884  60.9073687  61.1975050   9.8694468
  61.8232012  61.4496422   9.9873799  60.8264351  61.0205746   8.9322287
   5.3967720  17.7985704  18.3033025   4.6050036  18.2427382  18.6066985
   5.9432781  17.7223492  19.0854490  65.0241375  20.5913258  41.4176178
  65.1808691  20.3255129  42.3237133  65.8240938  20.3441572  40.9537125
  14.0931618  66.7871332  37.4143219  13.4431469  66.3838482  36.8389320
  14.3546677  67.5864077  36.9571424   0.6799118   2.0785524  27.4521494
   1.4675748   2.1172254  26.9096327   0.1176313   1.4404869  27.0128942
   7.3347670  28.5520983  37.0248079   7.4059796  27.6028132  37.1249032
   7.0515686  28.8630271  37.8846645  45.9544373  15.2557588  22.5131297
  45.1929235  14.7269249  22.7511668  46.0967970  15.8247662  23.2695675
  17.9011357  46.2213659  66.6781998  17.0344484  46.3198900  66.2840223
  18.3539212  45.5992889  66.1087799  32.8623533  71.6247129  34.9419117
  32.1926570  72.2397661  34.6428347  32.3725677  70.9406424  35.3984070
   4.3593317  17.6859200  45.6872559   4.7284764  18.3638895  46.2532234
   3.7345850  18.1518483  45.1315260  19.3267143   1.7082533  41.4572430
  18.9411187   2.3616226  40.8735847  20.1882720   2.0624898  41.6773939
  75.2789640  33.1142735   3.9536640  76.1921597  33.0413008   3.6762241
  75.3206015  33.1429148   4.9095291  79.0805864  18.8300920  47.9642773
  78.8273001  18.7073183  48.8791561  78.8621140  19.7427428  47.7756739
   3.3783764  28.0638456  21.9156623   3.2523021  27.4075031  22.6009035
   3.0686206  27.6380730  21.1162877  70.2766371  32.2438908  17.9213977
  70.9358263  31.7994118  17.3883462  69.9360895  32.9353333  17.3538017
  25.8095741  33.9531898  66.3502073  24.9041486  33.6861563  66.1916876
  25.8019137  34.9038529  66.2387943  79.8617363  30.7350278  41.9579458
  80.4318237  31.4065456  42.3325109  80.2900982  29.9076080  42.1773052
  57.6418734  75.9485531  34.6816587  56.7886972  76.2718105  34.3921328
  58.2723904  76.4032030  34.1231108  42.2932911  67.5465202  21.8906856
  41.3704062  67.7741480  21.7780066  42.5289869  67.9161501  22.7415991
  53.9185143   4.8622084  43.9131355  54.1872454   5.3283626  44.7047901
  53.0227947   5.1591736  43.7527275  76.5078449  24.8605442  18.1106091
  76.8690729  24.5203209  17.2920775  75.6265163  25.1541257  17.8797293
  81.8378834   5.8136344  15.2329159  82.5083586   5.2720016  15.6492436
  81.2578624   6.0700297  15.9499025  60.9425020  66.6543674  42.9028797
  60.6503487  66.7513847  43.8092279  61.8413162  66.3329649  42.9740524
  59.6201515   5.9737396  34.2368102  58.7043571   5.7196182  34.1228795
  59.7211075   6.7555296  33.6938143  33.2537031  39.0209579  10.7983494
  32.7849317  39.5816541  10.1802039  33.3343697  38.1811094  10.3462672
  74.8749733  67.6569700   3.7396121  74.9594069  67.3519611   2.8362441
  74.0650511  67.2547960   4.0534833  79.1350555  26.3299370  24.7452140
  78.5771990  25.5762196  24.9374175  78.5663605  27.0885658  24.8767591
  23.9542651  32.0741558  51.7493820  24.5533919  32.8047276  51.9028139
  23.1243157  32.3609543  52.1303844  39.8669815  50.4014921  39.6193051
  39.3935990  49.5741558  39.7067928  40.7868576  50.1452541  39.5529747
  69.2542076   3.3862397  12.3703384  69.1027737   2.4608421  12.1781421
  69.9367428   3.6504176  11.7534244  19.3814135  53.8807297  43.4169102
  18.5141826  53.6157322  43.7233734  19.6629143  54.5482063  44.0425825
  80.0285530  34.4437122  41.9464016  80.2378273  33.9992428  41.1248875
  79.9252892  35.3633070  41.7016315  58.5366678  60.5437517  57.5795555
  58.3524752  60.4622650  56.6437864  57.9802799  61.2659883  57.8711748
  44.3182707  20.2493691  41.4340687  43.8834667  21.0298467  41.7776251
  43.7940598  19.5189643  41.7626190   0.5346817  62.1202421  23.0087876
   0.3964195  61.3853216  22.4112892   1.4445612  62.3793840  22.8631997
  79.4329977  38.5538650  16.5081143  80.1254082  38.5127306  15.8484924
  79.4483232  37.6925826  16.9254756  75.7212210   7.9682839  17.3987293
  75.5429840   7.3063856  18.0668259  76.0349560   8.7269485  17.8908992
  72.7063656  14.7880256  21.9744468  72.6691532  15.2905607  21.1606264
  72.5511074  15.4348946  22.6626968  74.1284275  39.5640087  49.8372746
  74.9907827  39.1664386  49.7167730  74.2953396  40.3409910  50.3708172
  37.7509475  54.0956783  25.8007050  38.2082462  53.7133741  26.5496707
  36.9260716  53.6125612  25.7516432  62.1867943  31.4790964   7.8133225
  62.9464197  30.8974504   7.7835339  62.5164175  32.2831988   8.2145661
  28.5862684  33.1918097  36.2037683  27.8114533  33.2527995  36.7624903
  29.1998959  32.6530528  36.7032027  11.4606583  28.0845475  15.1741302
  10.5369914  27.9888368  15.4063153  11.5611017  27.5691104  14.3738365
  73.5023689  49.7216749  43.3768559  74.1726398  49.4310665  43.9953327
  73.7503195  49.3152094  42.5464678  51.6147423  24.0177083   4.9439320
  52.2398710  23.2944417   4.9922279  50.7684088  23.5937047   4.8019052
   1.2998258  52.7621508  36.9191456   1.7406020  52.0319843  36.4846277
   2.0102479  53.2782602  37.3001528  54.7847509   2.1112132  44.8082781
  54.3426561   2.9585761  44.8608446  54.2715931   1.6123597  44.1726303
  34.4492412  55.2628279  29.6600342  34.0404105  54.7398615  30.3496671
  35.1770973  55.7064676  30.0955105  34.3036103  14.8929358   5.8515698
  33.5267925  15.4474652   5.7788759  34.7050571  15.1506615   6.6814184
  59.3406439  18.3688939  32.3775244  58.8707781  18.5901535  31.5734696
  58.9189148  18.8979042  33.0546713  61.8228436  14.0258265   1.3230865
  61.1315489  13.4068692   1.5581122  62.2603703  14.2221236   2.1514997
  27.0516109  27.7956009  66.8277740  26.1292791  27.7183819  67.0718575
  27.3791242  28.5233355  67.3563290  51.7964745  30.0208259  50.4282475
  51.7049742  30.4539418  51.2769365  50.8973455  29.8454952  50.1506519
  49.2745543  57.4765778  36.9871402  49.6361065  58.2537270  37.4132323
  49.7640705  57.4030256  36.1678743  15.3102422  27.6905751  54.3656158
  15.6228113  26.7860222  54.3833780  15.2742934  27.9496837  55.2863789
  40.4913902  31.1262941  43.5945845  40.6566858  31.5618801  44.4307518
  40.6587648  30.2002573  43.7697172  26.0695720   2.6436079   3.3761877
  25.7606411   2.0719948   4.0790766  25.6304193   2.3165818   2.5910562
   0.0845971  13.8971376  28.8873124   0.9249368  13.7092054  28.4692907
   0.1625028  14.8035789  29.1848469  56.6156483   0.4148689  10.4770243
  56.0042238  -0.2660191  10.7577169  57.4814510   0.0471566  10.6542277
  56.3467789  22.1574020  10.6472933  56.0341978  22.3384643  11.5337133
  57.0767355  21.5504956  10.7700288   3.9981887  65.2614307  63.2710457
   3.6066595  65.5781269  64.0850735   4.7904959  64.8019838  63.5492373
  56.1772537  71.1037731  19.3838012  56.0543299  72.0441818  19.5132327
  55.4196548  70.7023716  19.8094249  23.0144858  72.0914793  11.2933052
  23.6162066  71.4216852  10.9684384  22.5473857  72.3922110  10.5138111
  56.2163544   4.3977019  13.2283700  56.1551666   3.4426272  13.2104862
  57.1272945   4.5836487  13.0006754  73.2850933   4.1375682  35.4114747
  73.9453030   4.1352007  34.7184014  73.6937904   3.6597669  36.1332107
  18.2754886   1.8896596  61.4358234  17.8469288   1.4538690  60.6991720
  18.3626294   1.2064330  62.1005344  79.8814440  50.7966280  59.4293833
  79.5353651  50.3925467  58.6336517  80.8122158  50.5732822  59.4261026
   0.2042628  60.1190615  53.0765486  -0.3731762  59.5382261  52.5811434
   0.6617677  60.6290627  52.4081039   9.4939327  48.7415028  55.3164244
   9.0999120  49.3431902  54.6847963   9.2838949  47.8701830  54.9803972
  70.7587385  64.7029305  20.8359528  70.4177189  65.4427052  21.3386106
  70.5600548  63.9362192  21.3734531  51.7085314  57.3976421  29.6612668
  51.8677378  56.6313171  30.2122927  51.2404203  57.0528078  28.9008808
  11.3645744  58.6043644  36.7022204  11.4096630  58.9196348  37.6048851
  10.5551112  58.9810610  36.3571048  74.7458172  31.2254620  33.5622001
  74.2170334  30.6552529  34.1203046  74.8085213  30.7555008  32.7306747
   3.0997467  43.1303501  29.9823260   2.5556445  42.9264355  30.7429862
   3.1665307  44.0852118  29.9846745  50.6708956  70.4112101  30.7070732
  51.6073751  70.4688644  30.8965755  50.5622625  69.5541811  30.2948427
  49.3806553  44.8633480  42.2197819  49.3223906  45.6726646  42.7275658
  50.1137114  44.3877172  42.6104736  76.9890451  44.6569920  57.8767300
  77.0734024  43.7207508  58.0572033  76.0611868  44.7795773  57.6760197
  10.0285435  30.1810050  58.3569527  10.3117764  30.2832770  59.2655516
  10.1094878  31.0574460  57.9807425  33.4310007  18.6711621  12.8987396
  33.4548950  18.0152786  13.5955012  33.4208465  19.5100069  13.3596826
  39.9453998  24.5925021  18.0385125  40.0961256  24.9106884  18.9286077
  40.8136415  24.5879054  17.6355636  30.2868342  11.8977475  53.3699799
  30.5324602  11.3654649  54.1266680  31.1140490  12.0718300  52.9209375
  51.8784142  22.9643178   7.5650513  52.7786207  22.7920675   7.2890282
  51.5215540  23.5289574   6.8794388  55.6842422   6.9884235   1.2230322
  55.3004503   7.8524250   1.0732505  55.6000233   6.5398091   0.3816735
  71.2502861   5.8574027  50.3543329  70.8994007   5.7982194  49.4657326
  71.7596102   6.6678441  50.3572369  12.6181090  51.8444920  60.2078199
  13.3395982  52.1554136  59.6609974  13.0037749  51.1489344  60.7404423
  10.3948534  37.5673985  45.5047417  11.0657752  36.9619298  45.1892996
  10.5634427  38.3807135  45.0290012  53.0408907  34.8577261   9.5605284
  53.5895014  34.4198632   8.9097297  52.1952057  34.9677825   9.1258645
  74.6080637  41.8980360  58.1532717  73.9248753  41.9023085  57.4828482
  74.2335606  41.3910437  58.8736439  18.2750857  32.7813721  55.6477308
  18.7106359  32.5077057  56.4549685  17.7465236  32.0252299  55.3925705
  13.9022672  74.3580389   5.8155721  13.8977301  73.4411001   5.5409157
  14.8236489  74.5518732   5.9879553  44.0141296   2.7653605  66.5936804
  44.5834160   1.9965610  66.6267490  43.3086967   2.5155306  65.9968758
  63.0493832   2.4472408   6.7610157  62.3429966   2.1716197   7.3452115
  62.6060104   2.9142150   6.0527867  79.1890001  33.3573866   5.6647003
  78.9018869  32.5837421   5.1796520  79.4112968  33.0257845   6.5346748
  66.4984369  24.1896009  64.2015123  67.1609306  23.5075116  64.3114758
  66.6323900  24.5121431  63.3103037  22.0849967  69.8358250   2.8619027
  22.4903226  70.5323792   3.3783889  22.1305919  70.1497936   1.9588089
  69.9213839  13.3934975  36.1490774  69.4939613  13.7817430  36.9124961
  69.9123621  12.4521708  36.3224411  37.4317670  57.9132748  58.2440329
  36.7718267  58.5516024  57.9733753  37.5026560  58.0291557  59.1915417
  58.5607576  66.6942501  13.3365178  58.8448143  67.5990820  13.2068419
  58.2883978  66.6577816  14.2534268   0.7651927   8.6931378   3.8921401
   0.4253864   8.5629505   3.0068070   0.4861435   9.5778316   4.1281053
   8.0129588  67.8787613  41.0010004   8.0096638  68.8340282  41.0617208
   7.4449188  67.6841879  40.2555466  55.1972342   0.8776031  31.6271353
  55.4405212   0.6549330  32.5257230  54.5951366   0.1820721  31.3626623
  38.5569310  24.6364856  15.2998042  38.7540865  24.7486019  16.2297451
  37.6381016  24.8917794  15.2172935  54.8415565   7.2789091   6.0834819
  54.3054771   6.5199697   6.3133991  54.4240856   7.6387912   5.3008997
  41.5015411   2.5202659  35.2568007  41.2007999   2.6665261  34.3599200
  42.3865652   2.1691544  35.1583958  14.1494572  58.7596703  47.4798584
  14.9257433  58.6485100  48.0287266  13.4181201  58.7640142  48.0974007
  44.8851204   0.2755738  62.7357864  44.6535826   0.6600890  63.5812283
  45.4007339  -0.4995601  62.9583597   3.2884836  35.2685714  10.9301853
   3.0177432  36.1132431  11.2899888   4.2389968  35.3393173  10.8421445
  71.4229870  16.3862658  55.1180267  72.0235777  17.0961773  54.8909807
  71.9785404  15.6081653  55.1644373  77.0982265  72.0967388  63.2747221
  76.6686916  71.3331842  62.8890800  76.7235565  72.1641970  64.1529655
  35.0293374  70.9251165   0.3423713  34.8848414  71.2075186  -0.5607355
  35.4562473  71.6722822   0.7615636  10.8125889  71.4852047  45.7659578
  10.6888759  70.5855465  45.4633951   9.9312127  71.8584871  45.7741213
  59.9990082  42.7171230  13.2978249  60.6122684  42.7187777  14.0327716
  60.0523424  43.6030769  12.9393899  72.4374580  63.8118362  60.5166626
  71.4998531  63.9830923  60.4283524  72.4856710  62.9451370  60.9200764
  73.4035969  53.2435179  59.7204542  72.8709126  52.6200724  60.2142096
  73.4614944  52.8664923  58.8425398  75.1757145   6.0662425  22.2642803
  75.1899433   5.5755931  23.0860424  75.0040817   6.9702435  22.5280166
   7.4188244  52.2185373  61.0941362   8.0950886  52.3019457  61.7664051
   6.6779888  52.7188730  61.4362764  23.6379790  57.5289440  49.8772049
  24.5147562  57.4628544  50.2555227  23.4883547  56.6761780  49.4689941
  39.4057560  26.2644005  67.3057556  39.7308969  25.5994534  66.6988277
  40.0965834  26.9265890  67.3280954  60.4780483  55.9579611   4.5101503
  60.6135035  55.5878115   3.6378694  60.1573801  55.2241993   5.0345516
   9.7552663  26.0609245  66.7119026  10.2704835  26.7429423  66.2810516
  10.3148913  25.7521510  67.4244404  70.1832771  37.0279384   3.4208950
  70.6507111  37.6948762   3.9238212  69.2576790  37.2310686   3.5559374
  52.0294762  29.3123317   3.6964881  52.8965521  29.5004773   3.3373025
  51.8381166  28.4206581   3.4057492  24.1287827  50.1711226  23.0424023
  25.0153422  49.8143387  22.9881191  24.1147542  50.6530190  23.8693309
  58.8760138  71.6400242  55.7248449  58.7530327  72.2319269  56.4669752
  59.1447210  70.8113098  56.1214066  55.8243704  61.5029097  36.3090158
  55.2973366  62.1058035  36.8334031  56.0681105  62.0095301  35.5343175
  23.6542463  63.9672279  51.8833590  24.2508769  64.0109873  51.1361313
  24.2159605  63.7441397  52.6256132   7.7788675  62.6935196  30.0339985
   7.0101166  62.3034000  30.4500008   8.1489325  63.2673168  30.7048512
  49.0902985   0.2304081  54.0507126  48.1724108   0.4651359  54.1871452
  49.0912450  -0.2674242  53.2331610  13.6483729  41.6340971  51.9330359
  14.5149112  41.3347101  52.2081900  13.2866478  42.0647573  52.7075768
  42.6040936  49.8488331  39.5300484  43.1186628  49.1136169  39.8630786
  43.2456923  50.4159451  39.1022944  51.0021019  36.8706512   5.8281201
  50.6355000  37.4172306   5.1330775  50.4032612  36.9874310   6.5656698
  78.8408041  34.7412705  47.3304129  78.0594254  34.1884804  47.3407316
  79.0929174  34.7824216  46.4079285  81.9693279  66.4993095  42.7143192
  81.1736012  66.8902159  42.3534346  81.8430805  66.5313005  43.6626148
  70.0551939  73.7798166  50.0375557  69.2596340  74.2960930  49.9080276
  69.7477198  72.9578257  50.4196787  76.5562391  38.5315609  20.6474900
  75.7897282  38.5000801  20.0750399  76.7487144  37.6140356  20.8407116
  54.4236326  31.9004583   4.8921338  53.9958000  31.7418933   4.0506777
  54.0753031  31.2212467   5.4696888  19.9126887  75.8452988  59.8088789
  19.1649675  76.2811661  59.4000196  19.7071362  74.9122334  59.7508240
  35.0213456  68.9433193  28.1311464  35.1269269  68.0108786  27.9423690
  35.3149176  69.3838835  27.3336816  29.6740627  72.8429794  10.1315439
  29.6547890  72.4244690   9.2709005  29.3453455  73.7282038   9.9748242
  75.4175234  41.1623764  64.8045731  74.6639252  40.5777264  64.8852110
  75.5855751  41.4611578  65.6982851  47.9116726  44.6560955   9.9029791
  47.7753973  44.3423223  10.7969642  48.7192011  44.2275858   9.6192324
  55.3639317  11.2257826  37.5713944  55.5207348  10.8357549  36.7114377
  54.9402094  10.5312717  38.0757213  57.7976656  46.2721968  16.3097918
  57.7319193  45.3615093  16.0224581  57.9863977  46.2147903  17.2464430
  72.7628469   6.8182224  10.1160645  72.9573393   6.8442917  11.0529351
  73.4922886   6.3305891   9.7334951  55.6600857  61.2126064   5.3337896
  56.0560656  60.9817410   6.1741078  56.3941908  61.2298059   4.7197628
  27.6961231  60.5825186  46.2461329  28.1392145  59.7773790  46.5138006
  27.3587584  60.3907061  45.3711319  71.4059877  44.5089865  20.5908060
  72.0365858  44.6562004  19.8858881  71.9406414  44.4541597  21.3828731
  12.1907961  42.6365328  59.9587774  12.4634802  43.5378265  60.1306820
  11.3227427  42.5689459  60.3564548  41.1250162  57.3588037  31.9404721
  40.3586102  56.7911720  32.0220304  41.8603754  56.7549038  31.8366122
   0.8248201  25.9159875  52.9430246   0.2813733  26.6104150  53.3154011
   0.4547834  25.1069069  53.2961416  49.2157650   7.6392204  11.1010945
  49.8045301   7.4447173  11.8303144  48.6893368   6.8461722  11.0002065
  47.3862410  64.3423986  43.8370514  46.4397860  64.4215775  43.9561892
  47.5025702  64.2619133  42.8903580  62.3227549  12.8023887  33.1091261
  62.2342968  11.8707848  32.9078293  61.4360476  13.1518400  33.0204391
  35.7425237  37.1060085   8.6355430  35.8047080  37.8931069   8.0943960
  34.8170161  37.0515752   8.8736725  79.4971228  32.3215556  64.0960741
  78.7001705  32.5106764  63.6007595  80.1842594  32.2657084  63.4320259
   3.6958793   8.4848857  10.8995509   3.1363395   7.7197891  11.0328722
   3.5494977   8.7325025   9.9865943   2.4239081   7.4226052   5.6797928
   1.7107697   7.9315609   5.2942681   3.1993794   7.6816946   5.1820499
   6.0948402  76.1506701  65.1207590   6.0953474  75.2112198  64.9372768
   6.9783664  76.3326550  65.4409027  66.9596577  61.1547565  57.5536203
  67.4600315  60.6373692  58.1846285  66.0936689  60.7471037  57.5427532
  18.0606544  56.6856432  56.4292383  18.1448221  57.1658039  57.2530079
  18.9249074  56.2992382  56.2878561  39.9257350   5.2727765  16.9492221
  40.4567480   4.6652389  17.4641514  40.5112410   6.0078925  16.7675197
   2.6602259  19.4892693  38.6154413   2.2032262  20.0054431  37.9514003
   2.5120625  19.9652004  39.4326115   1.0496978  51.6343546  56.0165358
   0.7710055  52.4235201  56.4810514   0.2330597  51.2150526  55.7453871
  56.1799431  27.2370434  13.4478748  56.5823936  26.3955760  13.2329273
  56.2291336  27.2891998  14.4023860   5.5908132  13.4542871   1.5716648
   6.3043934  14.0818477   1.6865651   5.0749075  13.8082230   0.8472321
  26.5752459  74.4870377  15.5912852  26.7795110  74.3131304  16.5101230
  27.3795199  74.8637629  15.2342808  52.7029371   4.0532890  29.4490027
  52.3763323   4.2527276  30.3263760  52.0905972   4.4936743  28.8596511
  25.5752063  37.9793453  58.0925035  26.3528490  37.4865699  57.8304338
  25.2803135  38.4068418  57.2884369   8.9935231  36.1292696  53.1642771
   9.2608255  36.9064975  53.6548901   8.3692813  35.6862235  53.7389660
  30.9906936  67.1134329   6.6114229  30.2349830  66.5289307   6.6705221
  30.6564331  67.9660034   6.8900305  71.9165564  29.4466519   3.7900802
  71.6736174  30.3163791   4.1075507  72.3716497  29.6116018   2.9642984
  17.1074045  48.9465904  52.1307659  16.3948262  49.3792486  51.6603708
  17.8930438  49.4273138  51.8701744  62.0203209  34.0953946  15.1921654
  61.7663908  33.3574915  14.6378648  62.8369045  34.4139886  14.8075604
  49.7107077   0.8199580   6.1602432  50.0839758   1.0046188   7.0221025
  49.1528082   0.0547764   6.2998074   7.3338962  53.9699984  40.5562305
   8.0062586  54.3853855  41.0962439   6.5300345  54.0521860  41.0693407
  12.6696134   9.4588119   9.8439902  13.4194672   9.3781871  10.4334378
  12.0007360   8.8922191  10.2284479  25.2328849  74.9155855   0.1249263
  24.8870635  75.6531191   0.6276088  26.0446239  75.2470636  -0.2590485
  63.5165119  29.0163565   3.7272540  62.9484987  28.3131766   3.4124082
  64.0370083  28.6113262   4.4209886  20.9479380  54.2889023  34.6538806
  20.3999853  54.9277735  34.1980076  20.3521800  53.5703039  34.8658204
  14.8417771  75.6098938  23.3498693  13.9472902  75.7334805  23.6674404
  15.2691007  75.0928974  24.0327597  60.6004906  49.9968195  27.3301172
  60.2176332  50.6519032  27.9136562  59.8944569  49.7749805  26.7230487
  11.0147870  32.7572131  57.6029491  10.5487728  33.1812859  56.8823767
  11.8813729  32.5625134  57.2460842  30.3979778  42.7078772  14.4184422
  29.6788263  42.2436666  14.8468852  31.1355162  42.6158428  15.0215983
  58.9131451  28.5448432  11.4799690  59.1831255  29.4234753  11.2128603
  59.1259146  28.5019493  12.4122357   7.8596741   3.2453308  46.7920351
   7.8975028   3.5354143  47.7034378   7.8410989   2.2897995  46.8453884
  77.0942068  31.9321179  30.1882076  77.6203108  32.5501561  30.6956291
  77.1762085  31.1036015  30.6605077   3.7962398  59.2984390  60.2248955
   3.8663763  60.2341843  60.4138231   2.9348969  59.1999102  59.8191690
  51.4876127  26.4815974  19.9399555  51.8507624  25.6021261  19.8356330
  51.5663147  26.8777180  19.0721262  62.2206593  35.3129029  31.1679196
  61.9106913  34.4091773  31.2265158  62.7239990  35.4460263  31.9711375
  33.1815624   7.6632655  56.0240316  33.0114460   8.4889007  56.4774799
  32.3155355   7.3513567  55.7614613  68.2751989  64.4555187   3.7320709
  68.6074543  63.8634682   4.4068387  68.7708473  64.2252684   2.9462263
  27.2222090  49.5724440  54.2246342  26.5525103  50.2557993  54.1969538
  27.3379946  49.3133926  53.3104563  19.5041323  31.2293911   7.4861926
  19.0660441  30.7653618   8.1996256  18.7999654  31.4520097   6.8772417
  52.2104645  53.4030485  46.3917875  51.7156792  54.2055464  46.2262058
  52.8445196  53.6473989  47.0659542  61.4459276  19.0814769  35.8145690
  61.4885712  20.0120664  35.5945325  61.5912485  18.6316550  34.9822378
  56.9867373  17.5470507  13.5746050  56.6435289  16.9222510  14.2134047
  57.6440382  18.0473661  14.0582097  79.0684080  69.5717669  66.2278366
  79.4077635  70.3675508  65.8182049  79.8137522  68.9712858  66.2384415
  63.6109781  61.4971161   9.7778112  64.1203547  60.7060575   9.6017534
  63.8198566  62.0833015   9.0504974  36.3624811  60.6770086  65.7415152
  36.5300703  61.3423967  66.4088964  36.0679817  61.1728668  64.9775648
  41.0837984  11.4017379  29.8010921  41.8751717  11.9391179  29.8353887
  40.5722570  11.6799462  30.5608010  20.5815077  20.4487896  35.7350779
  20.2088022  19.7391963  35.2118206  21.3762569  20.7010698  35.2650142
  64.5652962  22.6514888  32.0814991  64.6770000  22.1752954  32.9042959
  64.1195297  22.0313525  31.5044761  57.8435183  31.2043858  22.1709442
  57.6894903  31.0185170  21.2446833  56.9712782  31.3638496  22.5315022
  52.5954390  17.4948704   7.1203661  52.8650284  18.2481229   6.5948510
  53.2511663  17.4408567   7.8155911  74.7478962  11.4520073  16.3086236
  75.6973362  11.3930106  16.4149809  74.4516563  11.9472599  17.0722973
  37.9849672  22.8030992  53.2164431  38.8433576  23.0952311  53.5231304
  37.7019167  23.4871030  52.6096010  29.5932484   4.2562860  57.6753044
  28.7686205   3.8273472  57.4467611  29.3301797   5.0359875  58.1642771
  44.1241407  13.2489014  25.7502675  43.6922693  12.4364805  26.0142565
  44.9965000  13.1941438  26.1404300  74.2917919  19.6115518  19.2151964
  73.3475304  19.7505414  19.1424906  74.3865061  18.9772546  19.9257791
  81.9756508  56.7937994   0.6364650  81.2044716  56.2934208   0.3697373
  82.2146797  56.4293146   1.4886674  11.7565775  61.0016489  58.3075571
  12.5403059  61.4455652  57.9836082  11.4001667  60.5543280  57.5400209
  56.8834019  15.7189333  22.5916171  56.6994762  16.3967681  21.9412780
  57.8380299  15.7058513  22.6605225   2.4981061   1.2328147  60.6331491
   3.1216633   0.5851669  60.9617233   1.9565776   1.4503446  61.3918686
  45.9097576  24.5040941  45.5447006  45.1761293  24.0762877  45.9862995
  45.6231070  25.4097009  45.4266500  13.4650004  19.6227860  33.5878015
  12.6998723  19.6493351  34.1623497  14.1567492  20.0534058  34.0900779
   9.8156643  31.6009521  37.6930857   9.8046440  32.4912190  38.0445623
  10.3274584  31.6680193  36.8869829   7.2999221  47.4966002  39.2241645
   6.8529707  48.0080557  39.8986125   7.4155223  48.1082535  38.4970117
   4.2118719   7.3098731  22.6324153   4.4596255   8.1781578  22.3147178
   4.9371195   6.7429167  22.3701024  39.2311430  63.4157705  59.4663668
  39.5703793  64.3108273  59.4712877  39.0686440  63.2262945  58.5422850
   6.1062813  76.7270374  57.9233885   5.3850007  76.1033344  58.0069351
   5.6786889  77.5662422  57.7527142  63.7542486  21.6550875  18.1102812
  63.2032728  22.1264362  18.7351751  63.7127781  22.1799874  17.3109114
   3.5023269  19.9671566   9.2712706   4.2298430  19.8532927   9.8828155
   3.7368229  20.7428718   8.7618482  54.0674877  44.7195244   4.8765704
  54.1593552  45.2804613   4.1064161  53.8123941  43.8673258   4.5231283
   5.2938962  25.5120921  45.5187511   5.4593045  25.8987546  46.3786125
   6.1164224  25.6260943  45.0426340  70.7848597  -0.0791889   6.1783367
  70.2830505   0.5809348   5.7001543  71.4977312   0.4115960   6.5872109
  76.8438673  27.4333501  10.5080748  77.0676470  27.6820540  11.4049029
  77.6870346  27.2553325  10.0914156  47.7794647  28.1147838  11.9737005
  48.4601068  27.9963851  12.6362252  47.0519257  27.5723648  12.2781599
  53.6078728  -0.0383278  50.9114027  52.8260840   0.4115061  50.5909491
  54.0630520   0.6184725  51.4383316  33.5732603  51.5888023   5.3019094
  33.5887837  52.3045969   5.9372258  32.9829288  51.8931150   4.6126100
  25.2307034  35.3141212  10.5965602  24.8606682  35.4488659  11.4689994
  24.4897938  35.4298019  10.0016630   8.8616413  43.3196354  56.7354679
   8.6947089  43.7698269  55.9074020   8.1785530  43.6402893  57.3243666
   6.5372896  68.9597702  62.1701002   5.7271427  68.8918781  61.6648436
   6.5649450  68.1550217  62.6876402  47.7374935  37.8076100  63.1865358
  47.4908352  37.2513843  62.4476147  48.2487774  37.2343421  63.7576628
  11.1409581  68.6270905  50.6808281  10.4032981  69.2351294  50.7295609
  11.6165626  68.7613344  51.5005875  65.2917004  56.0538578   9.9694401
  65.1440620  55.1182270  10.1073754  64.4928169  56.4722538  10.2903128
  16.0325921  53.7920046  41.1986494  16.3288403  54.7021675  41.2074423
  16.8275976  53.2828760  41.0405779  62.6877260   5.6014788  28.2933688
  61.7600012   5.6168002  28.5285830  62.8457928   4.7039667  28.0005908
  18.3981812  61.4212990  15.6792748  18.4737670  62.3616028  15.5169535
  17.7256584  61.3484526  16.3565028  48.5974789   4.4444710  57.4266911
  48.5824490   4.9522412  56.6154146  47.9379606   3.7633160  57.2951746
  58.1504250  63.8842487  56.4199495  58.6616087  64.4304514  55.8228016
  58.0441189  64.4219446  57.2046900   9.8726958  23.8929987   0.0962177
  10.4231560  24.2713046  -0.5894283  10.3788018  24.0081930   0.9004680
  38.4289495  23.7120392   0.3545628  37.8648702  23.8630774  -0.4038800
  39.0613357  24.4301560   0.3295194  70.1457930  60.9134340   1.5228656
  70.4959631  60.0531626   1.2914562  70.5789852  61.1344862   2.3473114
   3.6490583  29.0760684  10.1160300   2.9327562  29.6474433   9.8391294
   3.6211321  29.1033077  11.0724342  48.9175797  63.4333849   6.1214608
  48.6633062  63.2421541   5.2186823  48.8311291  62.5960493   6.5771282
  63.0729818  17.6453662  62.3135090  63.4584332  18.4637225  62.0005369
  62.9108286  17.7976418  63.2445002  12.3734772  14.7411120  42.0719481
  12.7443624  15.0797880  42.8867960  11.9201946  13.9386475  42.3304415
  19.7023785  56.0198259  33.0126977  20.0074339  56.5086555  32.2483563
  18.9387643  55.5357885  32.6983190   9.1648537  52.2011089  63.5651159
   9.0874547  51.2566519  63.7001944   8.9005327  52.5850821  64.4011402
  57.5017357  29.5734811  16.4879501  56.9249249  28.8363981  16.2873816
  57.0489073  30.3365707  16.1289692  11.0252643  76.9052124  62.8967047
  10.2133930  77.3506021  62.6543713  11.4072657  76.6328430  62.0623636
  48.2904243  13.9388692  38.5536289  47.4886227  13.7579453  39.0441537
  48.6430597  14.7328293  38.9555073  56.5998220   8.0620241  29.4805598
  56.7751932   7.1727216  29.1729593  55.6475735   8.1012714  29.5695186
  49.0935278  17.8498995  44.3432856  48.9839363  18.1183982  43.4310722
  49.1748047  18.6719847  44.8268127  65.5395746  14.1897893   5.0798875
  64.9061871  13.5027015   5.2871597  65.8430910  14.5009303   5.9327060
   8.2091451  12.0167255  51.3578796   8.6691397  11.2787545  50.9578371
   7.3140138  11.9496047  51.0255146  65.3764057  40.1542568  44.1495895
  65.6769466  39.4765449  44.7550726  64.7569084  39.7044730  43.5750008
   4.0263185  29.4573808  64.3147421   3.7792620  29.1495466  63.4427166
   4.1514856  30.4004836  64.2092609  15.4792070  33.9567566  58.2639790
  15.3984082  34.7868919  58.7336349  15.9150684  33.3721805  58.8840818
  63.7878466  56.2335396  57.7890110  63.0459785  55.6331205  57.7157736
  64.2285156  55.9722614  58.5975742  29.5713210  71.9365740  40.3816223
  30.1125240  71.4556599  39.7554827  28.8844371  71.3176870  40.6294107
  28.9744306  18.8579512  66.8143749  28.1836629  19.3968296  66.8373537
  29.6223736  19.4023895  66.3671780  25.6950974  67.9937696  65.9289742
  25.8788657  67.2864819  66.5471983  24.7636700  68.1797123  66.0477304
  56.4416933  24.5753002  57.3080444  56.9994736  24.1759801  56.6404724
  56.0010052  25.2933717  56.8537331  40.5148840  48.8767099   4.9751663
  40.2581072  47.9546738   4.9629283  39.7869444  49.3336725   4.5538327
  74.1219521   7.2233152  31.4984059  74.2669487   8.1013268  31.1458397
  73.6545610   7.3696291  32.3208237  37.2042394  30.2842927  52.0938730
  36.4413643  29.8321939  52.4542379  36.8440104  30.8649850  51.4236069
  79.6931076  72.3238754  63.9004946  78.8088369  72.2596455  63.5397005
  80.0853825  71.4681911  63.7268400  74.4649839  42.8052521  41.8641376
  73.9965916  42.5504065  42.6590538  73.9256716  43.4961987  41.4794636
   0.2199695  63.9506769  38.8855481   0.7204325  63.6122561  38.1430912
   0.8469138  64.4845009  39.3736124  11.8012357  30.2125669   6.8481421
  12.1926808  31.0846519   6.8978339  10.9412265  30.3124428   7.2563577
  11.1113060  59.5039511  47.9702902  10.4132938  59.2449427  47.3686886
  11.3596523  60.3831530  47.6847029   9.0131992  58.5315561  46.4176655
   8.6455679  58.9065599  45.6173849   8.3061570  58.5969305  47.0595789
  68.0347681   0.9247665  49.2917585  68.7943077   1.3441771  49.6960115
  67.6385117   0.4147807  49.9982452  60.0376940  68.1222534   7.3391598
  59.7659111  68.2020473   6.4248312  59.4377947  67.4761391   7.7118361
  44.3139362   1.6251858  34.5359707  45.0303888   2.2418754  34.3855667
  44.6775055   0.9785790  35.1409078  15.7613957  44.5969296  35.1652122
  16.0140538  44.1527939  34.3558049  14.9700725  44.1408873  35.4516840
  44.4130373  18.8041186  65.4040241  44.8210669  18.6775947  66.2606096
  44.8216248  19.5980036  65.0590134  48.7195444  42.9637671  21.3907480
  48.1227732  42.2447538  21.1830997  49.5797873  42.6487637  21.1132765
  22.4471164  58.6943436  39.4039106  22.6041579  58.3403969  38.5285306
  22.3716402  57.9221535  39.9644947   4.5693254  52.1994209  51.4151525
   3.7322006  52.6520443  51.3122702   5.0871515  52.7778769  51.9750404
   9.7397971  62.5900269  51.4761257   9.9601901  63.0173731  52.3037958
  10.0569272  63.1927156  50.8034992   2.0741734  34.2270660   7.0612967
   2.0053664  33.9646006   6.1433589   1.4919135  34.9828625   7.1385944
  81.8849087  36.2452221  11.2063456  80.9401417  36.1246228  11.3017833
  82.2692013  35.6299734  11.8308628  29.5109177  58.8336325  32.5209427
  30.1851392  59.5130587  32.5151587  29.3260360  58.6717892  31.5958166
  11.5233898  73.2122755  13.2014239  10.8076799  73.1609344  13.8349509
  12.2521996  73.5902929  13.6935294  64.1039371  68.8362169  10.9307230
  65.0387812  68.7451649  11.1151481  63.6975718  68.0964708  11.3822496
  78.4734821  52.6888371   5.4543555  78.3209705  52.8560829   4.5243016
  77.6339388  52.3644638   5.7802004  80.2543449   2.2886238  22.7706838
  79.5354652   2.8247374  22.4359751  80.3606796   2.5707579  23.6791563
  23.1600666  66.8655586  63.4151793  23.9636493  67.3846483  63.3830738
  23.3140922  66.1474895  62.8012705  68.9223671  43.8532448  15.0526249
  68.9176512  44.0499783  15.9893775  69.0334463  44.7046947  14.6296287
  74.6119452  67.3461819  61.4374971  74.6838140  66.5695715  60.8825731
  74.4199467  67.0006895  62.3092794  62.1846581  18.5920417  57.5858688
  62.8998566  18.3973479  58.1915236  61.4636755  18.8733566  58.1491470
  17.0987833  68.2511854  45.3254890  16.4457655  68.0641270  44.6510935
  17.9393113  68.0960655  44.8945808  74.3546247  28.1217647  11.2631345
  73.6757040  27.4596834  11.3933122  75.1565790  27.6182055  11.1233914
   2.9724818  71.8365479  46.2076759   2.4859202  72.3662043  46.8393040
   2.4771874  71.0196161  46.1482096  64.5441008  26.5460610   0.9321842
  64.7344303  26.9910073   1.7580348  64.9892282  25.7019448   1.0067809
  70.2432108  56.8452358  19.9151778  70.3338861  57.0468616  20.8464980
  70.5636168  57.6286793  19.4682014  67.3746538   9.3194920   9.1802329
  66.7330265   9.0401107   9.8332965  67.0923281  10.1986086   8.9278859
  33.6472654  64.1913462  62.2326040  33.8064718  64.7392702  63.0011511
  34.2805195  64.4987392  61.5839672  68.4939337  54.7208261  18.9628291
  68.4090471  54.4514179  18.0482554  69.1157150  55.4482651  18.9415085
  36.2853074  75.4936552  18.3968592  35.3378582  75.6260633  18.3645880
  36.5151358  75.1924801  17.5178218   4.9260131  45.5656433  13.5997534
   4.9875218  45.4930544  14.5522130   5.4469490  44.8336124  13.2696176
  71.2491226  16.0483968  12.3502409  71.8682909  15.9224415  13.0692649
  71.7784595  16.4084816  11.6386425   4.2955235  61.9334650  61.3494587
   5.0608629  62.5067377  61.3923740   3.5945559  62.4385118  61.7615271
  54.5042419  19.1074038   1.6405144  53.5513926  19.0575230   1.7168225
  54.7490501  18.3096671   1.1715627  13.9167762  45.8913279  18.6135507
  14.4256961  46.2424517  17.8828359  13.0222988  46.1888075  18.4472680
  67.2585678   4.1818586  49.1489553  67.1409035   3.8418120  50.0359488
  66.3967276   4.0929204  48.7420607  10.0893974  47.7810335   7.3016238
  10.6358063  47.4302530   6.5983301  10.1532066  47.1310329   8.0013800
   3.2193878  56.2453222   0.4611057   2.6748851  55.4656124   0.5697641
   2.6992637  56.9550848   0.8378534  24.4966698  74.4098091  54.7578144
  24.4808364  74.1818571  55.6873417  24.2152691  75.3243065  54.7306442
   1.9293204  18.2202089  27.8504634   1.2369492  18.0121684  28.4778166
   2.3058555  17.3711574  27.6190209  79.1424322  40.1467800  20.0964761
  79.9174786  39.5981312  19.9759758  78.4159040  39.6065497  19.7857690
  14.7132075  12.6829660  14.3079793  13.9006758  12.4552488  14.7598302
  15.2505648  13.1038928  14.9790227   9.7632331  65.4764700  15.4412389
   8.9535290  65.4110813  15.9475350  10.2403080  66.2014437  15.8450258
  17.2349882  47.5408030  57.3938942  18.1866896  47.4403906  57.4141979
  16.9699752  47.1444273  56.5639067   9.7966582   5.0386035  52.2199726
  10.0086379   4.3083847  51.6385317  10.6141400   5.5310428  52.2938633
  16.1677361  16.6199458  54.8261166  15.9221625  16.8690073  55.7171249
  15.9776056  15.6830382  54.7783041  27.7106404  56.0057688  63.3041763
  27.5506377  55.2301741  63.8418436  27.4402380  55.7465076  62.4233246
  10.7321155  45.3658581  47.1176004   9.8100120  45.5848360  47.2517920
  10.9685791  44.8445177  47.8847551  63.5672235  34.9288511  28.8699031
  63.0430889  35.0418234  29.6628428  64.4288158  34.6599221  29.1886020
  70.2973843   5.9748274   9.4502068  71.1956596   6.2953269   9.5315337
  70.3323889   5.0773859   9.7812742  50.7390547  16.3016319   8.5462999
  51.3460350  16.8383992   8.0367076  50.2930498  15.7604003   7.8948551
  32.9701042  34.0373898  52.8817797  32.7046967  34.3993855  52.0363522
  33.7086773  33.4644175  52.6757574  78.1984949   8.7643343  21.5614104
  78.9665318   9.2334706  21.2354374  78.3984804   8.5868657  22.4805093
  23.0939865  58.2176638  21.3066196  22.8462052  57.9827213  22.2008443
  23.1571054  59.1727066  21.3186502  66.9092131  45.2850485  63.2917738
  67.3901224  44.4625711  63.3839035  67.5898075  45.9502745  63.1893301
   5.4488134  19.3949246  28.5037661   4.9001867  19.2933607  29.2815351
   6.3433641  19.2826891  28.8253474   4.9637428  23.3837247  65.4936171
   5.0959575  24.2002392  65.9753370   4.0303811  23.1958079  65.5923891
   7.7612054  10.5603647  63.0941582   8.4974700  10.7396019  62.5093317
   7.7115661  11.3309288  63.6598444  16.5211344  17.2384894   0.6140466
  15.9517026  17.3646963  -0.1449338  16.2515032  16.3953257   0.9781985
  59.2614603  49.7215509  57.9092836  59.0115690  50.5775595  58.2571793
  59.3627262  49.1684628  58.6839247  44.7030687   5.2016538  49.8685884
  44.7476912   6.1571270  49.9048185  45.2571344   4.9084082  50.5919504
  29.4859409  66.1225271  44.4391918  30.1505160  66.5518332  44.9779558
  29.4677114  66.6327953  43.6295462  47.9884005  77.3054218  10.5592799
  47.6698685  76.8443203  11.3352668  48.0060244  76.6372919   9.8740596
  26.4867640  64.3959856  12.3107100  26.5386081  63.6117077  12.8570175
  25.6532407  64.3108082  11.8478751  79.6279621  74.2229843  60.1756001
  79.7615910  74.5706224  59.2938280  79.9783468  74.8992777  60.7553291
  19.6141696   5.7301569   9.5204008  19.1655338   5.9295827   8.6987031
  19.0424562   5.0997674   9.9585617  32.8602386  10.1693583  32.0450354
  33.3350945  10.9681964  31.8156838  32.6367855   9.7733599  31.2027240
  35.1545644  73.7120962  13.1100512  34.8494101  73.3498049  13.9418316
  35.3538513  74.6275282  13.3062625  73.9566469  19.0123713  61.9147968
  74.6350241  18.6419284  62.4794292  73.2529688  18.3636189  61.9285679
  11.3232946  14.2608619  60.6475878  11.3880384  14.8935759  61.3629293
  12.2064948  13.9011002  60.5653667  56.8295670  44.9022913   8.3549631
  57.7760744  44.9656296   8.4827888  56.6425753  45.5140352   7.6428974
  32.3291874  11.7141318  27.3142934  32.2103763  12.5022852  26.7842674
  32.9361343  11.9794273  28.0052829  24.2104483  34.6632600  48.4667492
  24.9434209  35.2519989  48.6466694  24.6182609  33.8771129  48.1035852
  24.1469765  61.1056614  21.1628389  23.9963508  62.0508909  21.1719155
  25.0983167  61.0142040  21.2159538  40.3611422  63.6736822   3.7101018
  41.2506104  63.8513231   3.4042853  40.3170490  62.7198744   3.7774843
  81.5435219  44.8414612  35.7159066  81.1787701  45.5425692  35.1758790
  80.8168316  44.5673418  36.2753868  33.5029340  31.5434957  64.3356848
  34.4337821  31.6894960  64.1670513  33.3717608  30.6110311  64.1638231
  11.3755143  44.7716761  42.0971489  11.5906048  45.5034828  41.5188503
  11.3182819  45.1637697  42.9684782  52.4893713  72.7610254   3.3977240
  52.1084118  72.9520082   4.2548269  51.9218445  73.2171440   2.7763540
  22.7393246  35.6283164   0.9632263  22.8099394  35.8814502   0.0428083
  21.8116450  35.7389379   1.1715623  57.6815128  23.6550117  40.6393766
  57.2546148  23.5408783  39.7902799  57.2346354  23.0364299  41.2172079
   1.4675610  50.5941296  50.5663347   2.0166716  51.3138723  50.8772707
   0.9339884  50.3552437  51.3242722  76.0909128  13.0629969  26.8723226
  75.9145498  13.1109726  27.8119087  75.4677773  12.4145842  26.5444636
  33.8437986  32.2281361  20.8198524  34.1808391  31.3425565  20.6842709
  34.0847516  32.7007079  20.0230765   1.2409133  38.2904482  49.2137957
   0.6772834  39.0408897  49.4019222   1.2520996  38.2328582  48.2583952
  74.3537521  22.1681881  54.0407372  73.8213730  22.9626060  53.9994144
  73.8379765  21.5097404  53.5752773  70.1253366   5.9476352  46.7886353
  71.0556030   5.7417339  46.8805218  70.0407171   6.8347323  47.1381044
  19.3194973  28.6265755  42.9124451  18.8968182  29.4128394  42.5669527
  18.9927614  27.9165435  42.3598766  74.3406963  32.5245142  23.3184075
  74.1574097  32.3655295  22.3924685  73.4904289  32.7505183  23.6955047
  78.5775661  42.8418732  48.5336733  79.4708300  43.1367207  48.3565331
  78.6071301  41.8944979  48.4000874  12.3404598  64.2622995  40.8495140
  13.1816936  64.5413637  41.2110138  12.3357511  63.3115339  40.9602308
  79.1920757  49.7706413  46.3462782  78.6251640  50.5228376  46.5167141
  80.0164318  50.1547861  46.0477924  53.1242561  69.4582033  11.9068813
  53.0906963  68.5632038  11.5691257  53.3911133  69.3594551  12.8208113
  77.0674419  28.1964397  18.2399273  76.5660143  28.8156509  18.7703776
  77.3119545  27.5010705  18.8505888   4.9772751  26.9402623  26.6068625
   5.7139093  27.4014926  26.2057757   4.8992005  26.1299849  26.1032891
  68.4687233  39.9230361  39.3494320  67.8068256  39.2694473  39.1237211
  68.5486650  39.8640680  40.3014660  18.6366200  19.5592880  58.4111691
  17.8417218  19.3941450  58.9182138  19.2105782  18.8218892  58.6186457
  20.9579134  13.3472824  54.9001598  20.6609893  12.4386299  54.9493408
  21.8985963  13.3014584  55.0711775  80.9666920  51.9548178  46.4156437
  80.8604622  52.1734238  47.3414755  81.9140625  51.9439220  46.2792873
  10.9593952  38.0538654  59.2550564  11.5093422  37.3642659  59.6268702
  10.5364132  37.6425838  58.5012913  18.4962368  37.0556164  57.3429298
  18.2869303  37.0430684  58.2768774  17.7667189  36.5955210  56.9277811
   1.1234828  36.4767313  39.6693015   2.0069721  36.8031597  39.4986486
   0.7843851  37.0510960  40.3558493  14.4045639   9.1617340  60.1741838
  13.9614213   9.8103279  59.6272087  13.7026048   8.5886174  60.4824400
  70.1526499  29.9149156  37.2401381  70.4655170  29.3169236  36.5613508
  70.8634806  29.9432468  37.8805637  34.6614647  23.7517595  44.1667414
  33.9484477  23.8474417  43.5353279  34.4688058  22.9328084  44.6232891
   4.0083000  41.0838270  59.5600653   3.6574090  40.6000090  60.3077459
   3.7233329  40.5830908  58.7956810  51.0710335  62.9874182  55.8828115
  50.3347540  63.3270168  55.3740931  51.7340851  63.6760139  55.8334970
   3.3820438  14.3373048  53.5707569   3.3052990  13.4828269  53.9952660
   3.0179843  14.2035508  52.6956511  19.4473290  18.5461569  23.4335876
  19.3782377  18.7616169  22.5035143  19.7706854  19.3491530  23.8420868
  81.0244465  28.3653116  46.2081480  80.3942776  27.9552245  45.6157446
  81.0552120  29.2803788  45.9289789  38.5474205  35.7887816  18.9135885
  38.2234120  36.0265446  18.0448425  39.1987634  35.1071882  18.7480199
  49.9875927  64.5108128   8.5680902  49.5930672  64.2018986   7.7525204
  50.1954985  65.4300022   8.4004623  29.9331164  26.0578012   4.9983853
  30.1636791  25.5891585   4.1962352  30.3037357  25.5250454   5.7019770
  15.3208458  30.4272604   6.8353695  15.1461077  29.5001221   6.9969660
  14.6591020  30.6875777   6.1946201  10.2497792   9.6507782  27.4956536
   9.6794337   8.9812332  27.8733397  10.1067269  10.4234052  28.0422950
  19.4942689  64.3358231  19.9284494  19.8784745  65.1610470  20.2244616
  19.9917126  64.1081619  19.1429865  41.8484545  52.3560667  29.8790026
  42.1859884  52.9141760  29.1784215  41.5683651  51.5561771  29.4340754
  58.4363508  62.9641771   8.5393280  59.3316507  62.9402161   8.2015413
  58.1260443  63.8458681   8.3330387  43.8319731  64.9632025  47.9219484
  43.3224964  64.9034214  47.1138048  43.1834698  65.1504946  48.6006165
  14.6378684  38.9070153  46.7573929  14.7351253  39.2280769  45.8609056
  15.3157198  39.3678784  47.2517157  29.6258354  42.6746607  21.2072015
  28.8907218  43.2788324  21.3112307  29.5097589  42.0332623  21.9081759
  21.9479299  13.6335552  16.1078417  21.0860944  13.8501012  16.4636207
  22.1751666  14.3831515  15.5576599  33.6641026  67.6184082   4.3208858
  33.9510703  66.7065096   4.2726582  34.1300726  68.0541945   3.6073095
   2.9307690  40.2766085  47.2642756   3.8304067  39.9522638  47.2232342
   3.0139586  41.1730576  47.5893831  34.0665603  20.1027036  38.5356474
  34.3581367  20.4915023  39.3602991  33.1115651  20.1584077  38.5690403
   2.4794002  20.6562829  57.9195786   2.2155797  20.4286933  57.0280409
   3.4362558  20.6452370  57.8963995   4.7041875  19.3025219  50.2401686
   3.7624931  19.1784120  50.3586626   4.9794349  18.5548198  49.7096872
  16.8125832  32.2861314  44.2486572  16.0994148  32.5890803  43.6866570
  17.4708521  31.9503403  43.6402512  64.3384552  13.3516705  49.2685223
  63.6830425  13.7380672  49.8493528  64.6259975  12.5606859  49.7244740
  53.4151220  73.5830736  11.2448835  53.9640999  72.8176737  11.4152420
  53.9915514  74.3309641  11.4017701  77.2886562  43.9371872  42.3347807
  76.4604187  43.4720850  42.4528170  77.1544790  44.7793627  42.7694893
  10.8246171  53.3340979  18.6326325  10.4919827  52.6556063  18.0450642
  10.0609922  53.6050606  19.1422296  68.7411404  20.6919050  38.0608702
  69.5058060  20.1448607  38.2404852  69.0646744  21.5892720  38.1401610
  16.6565454  26.2032795  58.0070591  15.8592486  26.6636848  57.7451897
  17.1858072  26.1686492  57.2102451  30.4329610   8.0045611  44.1312933
  30.2775621   8.3820510  44.9970770  30.8768201   8.6984020  43.6436367
  16.4179552  67.8282309  15.3446496  15.6699252  68.2653427  15.7516074
  16.2390924  66.8944454  15.4555047   2.3140983  10.9197104  21.6918349
   2.0099945  11.5419352  21.0310864   1.6815656  10.2022672  21.6543102
  33.2983279   3.9260331  53.7861872  34.0692306   3.3716995  53.9072466
  33.0048466   4.1256094  54.6751595  34.4156766  27.6654243  42.4603081
  35.0866079  27.2351027  41.9302988  34.6750140  27.4887466  43.3646107
  32.6473594  69.5018625  40.6588793  32.5381327  69.9477386  41.4988184
  33.5669851  69.6400928  40.4321384  18.3115768  49.2178726   2.2857705
  17.8848803  48.9974499   1.4577755  17.5911701  49.3109274   2.9091379
  14.4275725  18.9859557  43.1793642  13.5046268  19.0364349  42.9306555
  14.8422718  19.7091711  42.7090263   8.4019178  39.0284610   4.3957284
   7.8571689  38.5797834   3.7490675   8.6663550  38.3395934   5.0054562
  61.5633774  28.4861612  45.6993675  61.7553234  29.3445730  46.0768890
  62.2657824  27.9207587  46.0205841  21.2064314  59.8054314  43.9692879
  21.8199515  60.4626226  43.6407709  20.3740883  60.0241375  43.5502386
  47.2625780  18.0094588  34.4792438  47.7078772  17.4512315  35.1166797
  47.9693079  18.3812785  33.9514947  76.5791655  47.2045755  16.2716675
  76.4308167  46.4757013  15.6691992  77.5313425  47.2568798  16.3544631
  42.4659681  50.2825117  13.9261305  42.4731016  49.3777180  13.6138284
  42.6767063  50.8047247  13.1521034  43.7627792  30.2762127   4.7594282
  44.1259146  30.4547691   5.6268859  43.4955120  31.1344194   4.4303691
  79.5799208  44.4594431  63.0379200  79.3864775  45.3764915  63.2324219
  79.3898010  44.3673515  62.1043205  60.0616026  20.7013988  18.2978034
  59.4297409  21.3354826  17.9588056  60.4758978  21.1475563  19.0364075
  12.9632854  25.4535890  38.8011169  12.3817062  25.4658866  38.0409551
  12.8706849  26.3243651  39.1876435  73.6613894  20.7852244  56.4703035
  73.1537676  21.1127305  57.2127962  74.1369581  21.5511894  56.1488056
  49.5810652  45.4398441  45.9086561  49.8620176  46.1726427  46.4566565
  49.7360611  44.6643162  46.4478874  78.8007593  27.7381253  31.8350053
  78.7424707  27.8517342  30.8863592  79.2024279  26.8767691  31.9488430
  31.7502570   1.3105369  52.0707607  31.6024184   1.2586159  53.0150509
  31.6771960   0.4058289  51.7667913  78.3497667  13.4025621   6.6153663
  77.7779150  12.9363418   7.2251678  78.5080004  14.2484426   7.0345074
   4.6897826  37.2368383  49.2025566   5.4495126  37.7608395  49.4564533
   5.0165689  36.3374877  49.1778612  67.5040340  43.6518097  56.1973429
  67.2892904  42.8060579  56.5908194  67.0028353  44.2876816  56.7079353
  31.1083341  33.5042095  47.8069401  31.4956188  32.9676747  47.1152925
  31.5058327  34.3672824  47.6914740  17.1182597  64.2084789  51.7540407
  17.5522554  64.3911600  52.5874138  17.7762973  64.4163084  51.0906982
  45.7476521   4.8497984  46.0458136  45.2389097   5.6403774  45.8658171
  45.0943089   4.1960901  46.2948990  73.8406706  38.7017536   2.5185552
  74.0864229  39.5926666   2.7677807  73.0568790  38.5159683   3.0356526
  16.0042870  34.5923495  50.0290585  15.4917037  34.1517401  49.3513060
  15.8929896  34.0456915  50.8068848  59.8344564  37.1941996  56.8313026
  60.0727272  37.0388293  55.9173393  59.4643927  38.0769610  56.8356037
  78.2521534  23.3010554  11.5530562  77.9165459  23.2305694  10.6593943
  77.5750017  23.7850881  12.0257175  81.6946125  29.8383927  54.9051189
  82.6085091  29.9258757  55.1759911  81.5886974  28.9057970  54.7172976
  12.6864839   7.2408921  57.5833225  13.0893719   6.7423648  58.2942247
  12.1359479   7.8868914  58.0258465  36.1707091  12.0098472  25.3257585
  35.6966877  12.7735174  24.9966025  36.8230104  11.8234742  24.6504807
  22.4258375  36.6757345  48.9567757  22.8205705  37.5046897  48.6861277
  22.8975511  36.0107923  48.4552050   3.7627560  13.5320628  59.7441721
   3.7336504  13.1462479  60.6196880   4.1915986  14.3785799  59.8696041
  36.2131786  71.1598921  42.5785112  36.2931705  70.2370167  42.8196096
  37.0228434  71.5610123  42.8943920   3.5565343  76.5957832   4.3676093
   3.6840075  77.5172758   4.5930761   3.0327356  76.6154146   3.5666844
  21.7599273  32.7457690  45.9542465  21.3357520  32.1533704  45.3334665
  22.4130177  32.2026825  46.3955641  79.7417688   3.9193538  28.5067129
  80.2922344   3.4400526  29.1259766  78.9482498   4.1249263  29.0009761
  74.4809008  12.7073014   0.8974755  74.5103598  12.7185524  -0.0592048
  75.3506851  13.0020249   1.1673665  11.8741381  29.9875784  11.4132249
  12.5127900  30.4809833  10.8985317  11.1085606  30.5604076  11.4578319
  71.0467052  50.6042337  42.9989147  70.8999395  50.6146622  43.9447403
  71.9819069  50.4238272  42.9036236  21.4841795  49.0333080  23.5531592
  21.1494994  49.2508841  24.4231462  22.2961450  49.5344019  23.4766769
   1.5117583  43.2737637  60.1893616   1.1941249  43.5652113  61.0439968
   0.9058635  42.5784826  59.9330235  18.5983694  68.1599712  22.9344940
  18.9530468  67.2825766  23.0780721  19.1243601  68.5167742  22.2187710
  27.2304010  60.9267855  40.2202082  26.6389036  60.3864145  40.7440042
  28.1034255  60.5887032  40.4196024  13.3629203  72.3157501  59.7833824
  12.7705812  71.7501402  60.2788115  12.8100908  73.0373096  59.4834375
  28.7287593  75.6067181  14.6714330  29.5429182  75.1409817  14.4804740
  29.0123796  76.4502668  15.0238752  50.8316755  71.2011957  59.4321442
  50.1396942  70.5563307  59.5789289  51.4285564  70.7760477  58.8163376
  79.3617582  39.3186975  35.5703449  79.1958141  38.5672498  35.0011158
  78.6639214  39.2823553  36.2245107  72.5086117  46.0881042  66.5689611
  72.3363638  46.8500805  66.0158300  73.2002354  46.3760662  67.1647501
  63.4451437  48.2294178  48.5917854  63.1359005  48.1939030  49.4969559
  64.0141487  48.9985991  48.5630798  15.9452343  44.5500278  51.5934658
  16.0944211  44.6216488  52.5362539  16.4869738  43.8094759  51.3208294
  41.6030312  59.2394447   6.8448669  40.9892464  58.5284710   7.0293093
  41.0520697  60.0188541   6.7727965   5.9900928  34.7936940  49.4563675
   5.6085420  34.4137955  48.6649561   6.0861272  34.0531683  50.0552273
  32.3393822  18.2674789  63.1118155  32.7395010  18.6980760  63.8672781
  31.8673563  18.9668047  62.6597452  77.3710632  70.1445341   2.1923558
  77.8524351  70.9550810   2.3582715  77.9843187  69.4489241   2.4295937
   7.8076196  62.6007414  45.2965403   7.7387780  63.2153511  46.0271215
   7.2103065  62.9481792  44.6341658  31.0739326  63.0627871  65.4036903
  31.3767195  62.8430223  66.2847424  30.4219007  62.3921776  65.2002859
  14.3338096  54.9907255  46.6116476  14.0250969  54.2641544  47.1529627
  15.0787687  55.3491879  47.0941114  19.8945117  20.0807023  65.4161453
  20.6056190  19.7239780  64.8838758  20.1542282  20.9859872  65.5871296
  71.1311626  52.1178961  26.1765194  71.3230181  52.9167986  26.6676164
  71.4141273  52.3122358  25.2829909  21.5943551  32.1357584  48.7919760
  21.4369321  32.9941869  48.3988428  22.5316477  31.9846869  48.6699343
  48.2074833  72.4810076   7.0407063  48.9879179  72.2133923   7.5260288
  48.0155706  71.7387295   6.4676225  51.7567778  59.1612530   8.0988514
  51.3975811  59.9560499   8.4932011  52.6999426  59.3193579   8.0579275
  15.0116014  17.7725959  20.7839060  14.6009386  18.6354589  20.8391786
  15.3221345  17.7125633  19.8804688  66.6297626  12.6918495   2.9236430
  66.8900633  13.3934283   2.3267658  66.7737436  13.0550706   3.7974691
  46.2778473   7.9660827  65.3054667  46.0329247   7.8911924  64.3831682
  46.8373585   7.2064519  65.4671431  20.6709123  30.8356261  44.4183874
  19.9004328  30.5988669  43.9021111  20.8121586  30.0853276  44.9957371
  10.2119720  43.8930416  28.6342645   9.8894411  43.0022860  28.4973073
  10.3604591  44.2323637  27.7516294  16.9556582  33.9363098  35.3358579
  17.2714257  33.5764146  34.5070052  17.0690751  34.8824000  35.2448654
  10.5583930  69.3160868  65.6562138  10.6816626  69.8094082  66.4671850
   9.7984332  68.7598610  65.8273888  75.3476334  38.4103847  52.5793505
  74.8318195  38.8982391  53.2213497  75.4731369  39.0248060  51.8561840
  18.8586402  49.1435719  62.6502132  18.3874440  49.3613243  63.4544468
  19.7832286  49.2072248  62.8896236  46.6575623  75.5276346  27.5918531
  46.4307833  76.4527607  27.6864171  45.8515501  75.0598907  27.8104591
  46.7578077  10.4750752  66.4538097  46.5464735   9.6742731  65.9739256
  46.2865829  11.1653352  65.9872007  71.5997076  71.9619513  55.3648376
  72.5499630  72.0769358  55.3594494  71.3180637  72.3348331  56.2002230
  15.6439412  67.5836039  19.2341828  16.5084422  67.9905891  19.2910147
  15.7721901  66.6997766  19.5786154  51.2259436  42.7699900  45.3412390
  51.5981197  43.6492777  45.4088020  50.2873373  42.9156399  45.2227736
   5.2165222  25.1641011  57.6133871   5.0790602  24.5606089  58.3435440
   5.8608639  24.7252512  57.0579863  19.2640150  18.9756131   3.0723938
  20.1940727  19.0658545   3.2799581  19.2391622  18.3434582   2.3540667
  78.8062620  18.9717758  30.9331441  78.8449621  19.9274969  30.8966708
  79.0972805  18.6870503  30.0668454  77.1728945  26.3967633  57.3606920
  77.4570847  26.2783551  58.2670307  77.9616117  26.6785002  56.8972397
  48.3294678  52.8653288   4.5968547  48.9255428  53.6085844   4.6890375
  47.7209663  52.9539013   5.3304172  68.2456541  17.4704564  39.4464469
  67.8767872  16.8484104  40.0735235  69.1367388  17.6261318  39.7594357
  74.8108196  25.0427294  38.6440730  74.9618196  25.2871752  39.5571327
  74.6599531  25.8745956  38.1952214  50.6527662  76.3363504  17.5068140
  51.5835619  76.4886093  17.3435080  50.2457857  77.1950245  17.3916042
   6.3814783  29.9817777  61.1776781   6.7115343  29.1806507  60.7708693
   7.1665448  30.4966497  61.3642454  72.2701883  31.3471222  16.2087691
  72.3057508  31.8655872  15.4049277  73.1712532  31.3438463  16.5317285
  19.8065162  46.4648151  33.8078785  19.3247747  46.1055422  33.0628419
  19.1272783  46.7996836  34.3933129  20.3969884  49.5430660  58.7182331
  19.4451070  49.6378326  58.6839867  20.5378246  48.6753750  59.0970564
  11.2619519  33.8306689  46.3730574  11.1892450  34.5133853  47.0400238
  11.5049767  33.0439305  46.8611288   6.8799019  16.1738205  46.2318182
   7.1208012  16.1029518  45.3081417   6.1363173  16.7765224  46.2398529
  44.8146582  71.9658422   4.6992925  45.1613283  72.7566767   5.1123697
  45.5254030  71.6582155   4.1367632  81.4144516  49.5311594  55.2682638
  82.0890522  48.9178991  55.5599260  80.7239342  49.4587946  55.9271812
  71.4541721   3.8126311  59.2903614  72.1800613   3.7438935  59.9105167
  71.4997244   3.0054531  58.7778950  22.7397823  44.7311735  58.4673309
  22.7140093  43.8935757  58.9299345  23.6647248  44.8606396  58.2576942
  45.4154253   0.1166941   1.7504612  45.1164103   1.0069628   1.9355141
  44.8228550  -0.1979385   1.0677447   4.3146461  68.4375238  42.8721762
   4.0607703  69.0609360  42.1916342   3.4961179  68.2269526  43.3215094
  71.3838579   9.9174740   0.3193150  71.7981173   9.5750525   1.1113797
  70.6571664   9.3177178   0.1506530  37.1811342  53.3645248  22.4535871
  36.8445325  53.4000444  23.3489466  36.4719391  53.7183905  21.9168782
  66.1255693   8.0804509  28.6795449  65.8026505   8.5777760  29.4309592
  66.7287779   7.4403882  29.0572906  35.9759641  30.0834537  34.4338012
  35.7450557  29.7950983  35.3168416  35.2961493  29.7084308  33.8739443
  24.7031927  36.5167332  65.0209761  25.3357649  37.2079778  65.2165937
  25.1368451  35.9747553  64.3618584  19.9440634  64.0270758  57.9028130
  20.8888125  63.9102507  57.8026438  19.8175657  64.9758148  57.8920031
  64.9559546  23.6537528  58.4141445  65.2718973  24.4460297  57.9797411
  64.5569944  23.9682889  59.2253971  74.8618984  53.6342144  47.2939062
  75.3269577  53.8507605  48.1020260  74.8431158  54.4546366  46.8011713
  44.4736290  55.9437227  23.6965322  43.9140654  55.1756048  23.5819983
  45.2424669  55.7627296  23.1558299  19.9872649  72.4753380  26.2832046
  20.1987648  71.5516472  26.1479449  20.2599669  72.6541996  27.1831346
   4.3300763  44.1559553  38.4609962   4.5518801  43.5784721  39.1914392
   4.1916433  43.5642910  37.7214026  48.8432932  70.0481749  21.0468650
  48.7092733  70.5749273  21.8347716  48.7320995  70.6657839  20.3240752
  27.9545283  59.8710775   5.0185984  27.1193886  60.0527096   5.4496270
  27.8852797  58.9588833   4.7369251  60.0372458  14.0347958  32.8157806
  60.0250196  14.7867739  32.2236538  59.3971109  14.2529202  33.4931874
  75.8609152  13.7135637  58.3001471  75.7687378  13.9256585  59.2289877
  76.7920637  13.5212481  58.1896448  67.4601841  43.4674168  23.2058120
  67.2383690  44.0426970  23.9379859  66.7169762  42.8679657  23.1385279
  32.3655939  40.3399324  36.7868948  32.6020932  40.2082968  37.7050281
  32.9927635  40.9892893  36.4687395  70.8566380  63.6154175  32.3342109
  70.7032681  62.8909969  31.7276382  70.3134298  63.4098196  33.0950570
  33.6611009  54.9379158  53.4939909  34.4343162  55.3932190  53.1607199
  32.9765391  55.6068134  53.5074949   1.3538153  22.6342154   8.1593716
   1.7871171  23.1041121   7.4468565   1.2731358  23.2821012   8.8593471
  42.4394941  63.1901884  32.0178127  42.1959400  62.8335571  32.8720546
  42.3369789  64.1368628  32.1154284   1.5164137  56.2459755  36.6538000
   0.7267709  56.5218878  36.1884332   1.2037327  55.9771681  37.5176334
  13.4815407  66.6455746   3.1094307  14.0543437  65.9844255   3.4980333
  13.7398612  66.6746712   2.1882054  71.4631462  77.6110411  60.5221319
  70.6266785  77.4414587  60.0887775  71.5930510  76.8559599  61.0959053
   1.5273187  28.5847521  43.9610147   1.8323070  28.5353947  44.8669815
   0.6590014  28.1823134  43.9783478  39.4430733  52.5858307  45.5562305
  38.9406109  52.0309782  44.9596548  40.3569841  52.3668242  45.3744841
  79.1452169  48.9400339  62.2615051  78.1971025  48.8152790  62.3032713
  79.4407558  48.3112478  61.6030884  39.0602541  36.0222316  66.8747377
  38.2817054  36.5182924  67.1277571  39.3887639  35.6566954  67.6961374
  34.1223383  66.1046362  11.1017406  34.4608092  65.2601242  10.8043075
  33.8692474  66.5579033  10.2975476  30.7056761  59.7919893  43.4203100
  30.9984899  60.1974964  44.2364311  31.3407946  59.0944672  43.2580996
  55.7829428  28.7776351  42.8116894  54.8734713  28.5212994  42.9646158
  56.2276459  28.5869598  43.6375904   8.8729626   6.4732999  10.1482379
   8.9898932   6.0877049   9.2799777   7.9240698   6.5403706  10.2547085
   7.8925604  45.0337601  40.2303314   8.7943590  44.9757004  39.9147034
   7.5801879  45.8794355  39.9086332  11.0588014  45.7773542  34.6426225
  10.4096317  45.2174807  34.2167640  11.2465310  46.4595366  33.9979410
  61.1300087  56.6325521  20.6803274  60.8855677  55.8866930  21.2282109
  60.3735209  56.7688370  20.1099038  18.8823819  61.0051441  13.0705619
  19.1378999  61.8660069  13.4020185  18.3391035  60.6326771  13.7650740
  10.4572845  41.0796547  62.8423262  11.1558354  40.4697275  63.0794907
   9.8849261  40.5752277  62.2642326  17.3080707  47.4230528  45.0019550
  16.9739282  48.0575371  45.6360006  16.8172777  46.6216040  45.1837254
  80.6100178  52.7559090  54.5378304  79.7900772  53.2407093  54.6321774
  80.3556061  51.9345665  54.1172314  69.6274137  34.9072838  61.1762619
  68.8045835  35.3924108  61.2381554  70.2965879  35.5348539  61.4493799
   0.7785150  19.6839774  20.4168153   1.0252102  18.7714434  20.5673337
   1.4009717  20.1896787  20.9393549  35.0043893  34.0317798  62.4364424
  34.0592122  33.9324713  62.5505114  35.1342988  34.9732757  62.3226976
  28.7921953  34.5479989  58.4655142  28.9003253  34.1651940  59.3361473
  29.4818258  34.1439128  57.9388666  30.0310373  64.3403816  32.8302860
  29.8872519  65.1023436  32.2690582  30.5266261  64.6814060  33.5748148
  28.5457587  68.3807373  20.9914947  28.8337111  69.2136574  20.6179166
  29.2420673  68.1385994  21.6020346  15.5229354  31.6809464  15.1684773
  14.8940134  30.9644651  15.0827789  16.2328625  31.3146853  15.6958175
  78.9831686   9.3083143  26.7799735  78.7541246   8.3952492  26.6065240
  78.4474277   9.5502925  27.5353932  81.2472057  46.8546724  45.9987354
  82.0391941  46.6009760  46.4726973  81.4272594  47.7424192  45.6893492
  55.6662750   2.8600636  27.2786975  55.0363970   2.4037930  27.8366470
  55.8680868   2.2338068  26.5834975  82.0329952  60.2473831  48.0353355
  81.8597126  60.2262259  48.9764833  81.5372086  59.5078802  47.6838303
  15.8552754  61.9845819  26.8045163  16.2807846  61.1329365  26.7051578
  16.5596926  62.6203871  26.6788840  17.9106498  30.8600140  42.0387840
  17.0920658  30.4169106  42.2619677  17.9305935  30.8585453  41.0817909
   8.9449143  32.0379949  48.2134724   9.0502459  31.8260527  49.1409540
   9.6319634  31.5371108  47.7737999  51.0263538  75.7840538  53.2520723
  51.8184614  75.4295635  52.8481722  50.7944822  75.1449442  53.9258766
  25.4617953  58.1363010  54.9464178  24.8722529  58.3151865  55.6789970
  24.9412513  57.6044464  54.3444252   4.1487712  76.9490576  54.7280693
   5.0573653  77.2253513  54.8478603   3.6539710  77.4734640  55.3576708
  80.6851196  33.5617948  35.8497810  80.5769157  33.3990288  36.7868137
  80.6121159  32.6968026  35.4464316  26.2561560  57.6936960  45.2166080
  25.4890132  58.2098484  44.9690008  27.0011234  58.2058096  44.9019766
  73.6327314  74.3544865  46.0295010  73.2509947  73.7031937  45.4410028
  74.0711164  73.8383007  46.7059708  22.5837708  44.4112682  52.8260946
  22.3392344  43.7142754  53.4348917  22.5798368  43.9905787  51.9663048
  30.8527279  72.0848560  29.9097896  30.0120282  72.5410414  29.9465585
  30.6637907  71.2073183  30.2421451  18.7247860  38.0080843  54.2762756
  19.5408976  37.6845145  53.8948393  18.6389041  37.5286341  55.1002836
   9.4115257  66.4759159  38.0737877   8.5390621  66.4308310  38.4649491
   9.4095033  65.7917786  37.4043226  28.0215621  62.7599192   3.9843059
  27.9494190  61.8514442   4.2770520  27.3079896  63.2135201   4.4329649
  21.5591216  48.6885309  50.7465553  21.6928983  49.0217781  51.6338444
  21.4796352  47.7409410  50.8560514  64.6428108  29.9908876  15.6256795
  64.1133451  30.5360508  16.2076592  64.4291973  30.3019762  14.7460055
  15.5897331   6.4289093   3.6313757  16.2673712   6.9996643   3.9936975
  14.9983871   7.0228368   3.1689984   6.6085488  33.8318324  20.2622509
   6.0546845  34.0018320  19.5003021   7.5000882  33.8264871  19.9138832
  31.8211246  75.0339031  30.8836389  32.4073553  74.2881966  31.0120463
  30.9591103  74.7082949  31.1427593  35.0361609  66.7172956  49.8734665
  34.1555882  67.0737600  49.7561789  35.6015134  67.4879265  49.9257565
   6.9997901  41.4412355  52.7260828   6.8196523  42.3474026  52.4757862
   7.9538554  41.3950539  52.7881956  69.8141241  48.8593769  49.3067694
  70.2392387  48.2269716  48.7274837  69.8264980  49.6805716  48.8151217
  14.1046643  63.9439726  52.6518297  14.8655081  64.3039417  52.1960115
  13.8728905  64.6128416  53.2961369  53.6119699  16.9597161   9.7399366
  52.8919649  16.7009604  10.3151500  54.2871761  17.2874916  10.3339839
  79.1037846  54.7272205  57.5472069  78.8567114  53.8567448  57.2350216
  79.1681623  55.2572441  56.7527485  56.0745811  15.9051430  15.4616272
  55.2523518  15.4167747  15.5025434  56.6406536  15.4752421  16.1027002
  51.6791582   4.8003739  35.0879908  51.5900278   4.6500051  36.0290933
  50.7873583   4.7266889  34.7481465  67.6711702  33.9452744   2.7489951
  67.6483965  34.8757863   2.5257036  67.4706888  33.9184952   3.6845812
  81.1291218  69.1054535  59.7024298  82.0591736  69.0953350  59.4763184
  80.9412479  70.0224447  59.9025631   5.5369264  74.6699142   4.5808738
   6.4175296  74.9535370   4.3352577   4.9788383  75.4215431   4.3813205
  15.5610597  34.2213321   8.7477154  16.2707889  33.5931110   8.8813442
  15.9532416  35.0715971   8.9463955  70.7245302  11.8258131   4.7437871
  71.4681292  11.5507472   4.2074737  70.2278852  11.0216510   4.8951030
  11.3617277   8.4044802  25.3129649  11.1006343   8.7364131  26.1719656
  11.2631512   9.1543961  24.7263288  31.9124818  54.5494366  57.0847368
  32.4304795  55.2654934  56.7170763  31.9089746  53.8803482  56.4002371
  30.4815340  54.7164679  64.3015242  29.6866107  55.2401686  64.4018602
  31.1308670  55.3301334  63.9579964  25.2836180  42.3387337  58.2904434
  24.3708920  42.0984602  58.4499168  25.2441311  42.9606581  57.5638866
  79.6583652  71.7507505  50.2760935  80.3672981  71.3461161  50.7760143
  78.8582802  71.4203739  50.6846857  16.4303684  56.4045191  61.4481306
  16.2915075  55.5476379  61.8515015  15.7383013  56.4746952  60.7906008
   7.8698778  55.1612711  46.8806362   8.1714082  54.2528772  46.8922997
   8.1019223  55.4794741  46.0082054  47.1918977   0.1106313  15.4255962
  46.9753850  -0.6247755  14.8524201  47.7352870   0.6838421  14.8848677
  57.9200554  68.7450695  25.4485321  57.9942894  69.6060705  25.0369549
  57.1437263  68.3541107  25.0476670  42.5619698  48.8058901  10.7028520
  43.3665609  49.3244028  10.7057881  42.8175402  47.9693699  10.3140807
  33.4140444  28.2276583  53.1490421  33.8580275  27.8040338  53.8836527
  32.5470328  27.8226209  53.1273890  62.9559469  41.1110783  46.3885069
  62.5422621  40.4526615  46.9467020  62.3518658  41.2156010  45.6533909
  10.2179039  71.0251999  35.5959773   9.9367201  70.5820990  34.7954583
   9.4024032  71.2703991  36.0330915  35.6213331  75.4024887  26.2342954
  35.6312013  74.7301388  26.9155312  36.4583492  75.2974463  25.7819629
  28.7773061  65.0789165  15.0313902  27.9454064  65.1055574  15.5041087
  28.9248276  64.1491032  14.8584151  38.8093519  74.3798637  58.7240267
  38.1542683  74.3148470  59.4189167  38.9169979  73.4815407  58.4115314
  40.6520414   8.4443438  23.2757783  41.2835741   7.7257770  23.3083200
  40.2149582   8.3409733  22.4304938  38.2534742  30.0115061  66.6389751
  37.6120281  29.9146008  67.3428106  38.6259270  30.8830738  66.7726803
  48.5165501   4.9380159  46.3795710  48.6141443   4.0133178  46.6068172
  47.5836611   5.1166219  46.4981174  64.3653393  -0.1113649  43.4933376
  64.7886133   0.0383804  42.6479673  64.5062971   0.7013059  43.9790630
  79.5395184  53.8543463  45.1792145  79.9793482  53.1489897  45.6538248
  78.7803078  54.0703058  45.7206869  22.1448779  22.0104766  27.8345919
  22.4452257  21.1021519  27.8656840  21.4501548  22.0556450  28.4915185
  12.6807415  65.3229618  57.8454924  13.5759425  65.1692295  57.5434780
  12.5875616  64.7607660  58.6145735  24.4447637  50.5613804  29.7209382
  23.5534096  50.4418230  29.3931794  24.5837092  49.8216915  30.3123689
  49.3466902  16.8002939  61.1779118  48.8409948  16.6851079  61.9824219
  49.8060942  15.9684956  61.0626221  73.2590961  17.7778769   4.6382561
  73.3209515  18.4904349   5.2743900  72.5193357  17.2507942   4.9402004
  79.6093655  54.6911383  37.5890398  78.7236166  55.0170660  37.7485752
  79.9142599  54.3962860  38.4471393  32.7309561  23.1084490  48.1720114
  32.7194047  22.3781753  47.5533056  33.6056590  23.0800653  48.5597277
  34.1726422  69.5449829   6.1435425  33.3483887  70.0309277   6.1699706
  34.0566659  68.9151669   5.4321271  77.6402760  26.7880988   4.2244598
  77.5272465  27.5669765   3.6796629  76.7549706  26.5680742   4.5143911
  64.6414804  33.4102178  55.2888536  64.1976690  32.6551604  55.6750536
  63.9817333  33.8128138  54.7241592  17.7377093  73.0583620  51.6095638
  18.6446118  73.2242489  51.8669367  17.4715626  72.3076677  52.1404696
  20.3108597  22.9223633  60.4906034  20.5461431  22.8423166  59.5662260
  19.7423792  23.6915922  60.5273151  46.7626429   0.5767383  33.0674386
  45.9922981   0.0275406  32.9218912  46.4136457   1.4653489  33.1367421
  66.1362696   7.5641400  11.4001584  66.0628891   6.9212085  10.6948316
  66.4553595   7.0618212  12.1498847   3.5929513  27.8132606  52.7028179
   3.2685229  27.3984838  53.5021544   3.6303449  27.1027517  52.0624971
  19.6106064  43.1176996  51.6698933  19.2506623  43.8015699  51.1050987
  19.9053264  42.4374819  51.0643625  33.8485169  54.1926765   6.2737668
  33.7484384  54.4319677   7.1951544  33.7388515  55.0165987   5.7990527
  21.8559647  48.3747292  47.5912189  21.5817571  49.0633583  48.1968784
  21.9688630  47.6010752  48.1434393  78.6510563  58.0899858  43.8519526
  78.8912296  58.8844156  43.3750534  78.6502171  58.3539820  44.7720289
  20.0282717  28.2974887  50.5883884  19.7548604  28.8063431  51.3516331
  19.9686098  27.3859549  50.8743620  67.7081108  30.9832120  22.5021815
  68.2588816  31.4316535  21.8604755  68.3262491  30.6217074  23.1373596
  73.5526371  34.3396902  56.4631796  73.3497715  33.5796857  57.0085859
  72.8928375  34.3200064  55.7699919   2.5542599  26.5986514   7.5899404
   1.7504406  26.2123489   7.9376137   2.3632379  27.5346041   7.5288308
  32.9033756  28.7558413  63.9463377  33.0623293  28.2455277  64.7404051
  33.1951022  28.1871796  63.2337713  18.3798909  42.9803896  41.7427874
  19.3205869  43.1573439  41.7457867  18.1425321  42.9623365  40.8156586
   2.4056873  42.5969696  65.1380825   1.9552490  42.2050619  64.3899202
   2.9817718  43.2567739  64.7520590  81.6144371  10.0178957  57.8066778
  82.1376896  10.6472301  57.3103094  82.0939445   9.9018848  58.6269474
  72.0703650  36.5774131  37.6841664  71.1776400  36.2436581  37.7729797
  71.9766188  37.3774862  37.1671271  50.5513191  45.9970188   2.4159576
  51.4035654  45.7592487   2.0507583  50.7256556  46.7769527   2.9427826
  11.2141681  75.6668901   8.7914455  11.1573172  75.7038021   7.8366482
  10.8307970  76.4929104   9.0863186  21.9923329  46.1349535  64.9929571
  21.9206023  46.8692636  65.6027699  22.6109505  46.4358950  64.3273926
  68.8401365  35.7966399  25.7645893  68.4227037  36.4692211  25.2264285
  69.7122288  36.1451197  25.9496689  56.6821289  16.5018594   5.7965261
  57.6251984  16.6181815   5.6811100  56.5876675  16.1897337   6.6964626
  65.8692789  69.7208643  54.4600058  66.7263126  69.6502733  54.8804140
  66.0379314  69.5260096  53.5381508   9.4392926  61.8691158  32.4682975
   8.5565263  61.5978622  32.7200437   9.9561304  61.0641766  32.5026274
  69.9704409  30.3752613  49.3190813  70.1913166  30.5166674  48.3985138
  70.4076099  29.5547915  49.5469856  70.3954887  73.6549473  57.3817730
  70.4904699  73.5687876  58.3303452  69.5480061  74.0840387  57.2639179
  32.0600653  69.9137831  54.6149254  32.0768023  70.1469612  53.6867142
  32.0424485  70.7542276  55.0727272  77.2691870  61.3682890  64.3898630
  77.6022339  62.1997118  64.7275829  77.6527596  61.2938356  63.5160446
   8.5003448  53.2855463  65.9960365   8.1686664  52.9178047  66.8151760
   9.1187012  53.9626884  66.2705326  80.0765324  37.5689173  41.9681597
  80.3638172  37.9678202  41.1468363  79.9022675  38.3111954  42.5468540
  43.7052107   1.6625230  46.2942362  44.5335007   1.8364534  45.8471203
  43.0685329   2.2170272  45.8432388  53.0828571  17.6100218  13.4905136
  53.5787868  17.9653919  12.7529538  53.1207037  16.6612375  13.3696580
  19.9326360  44.0119219  31.3473439  20.4307222  43.4304905  31.9218707
  20.3754544  44.8574114  31.4200473  16.8442308  77.5275145  22.7262545
  17.2699796  77.6978246  23.5664749  16.0692941  77.0123213  22.9504919
   8.4577525  43.8187790  17.5565422   8.3830839  43.6564922  18.4969246
   8.3582997  44.7667122  17.4684417  15.2381480  48.5546970  46.8159866
  15.4309380  49.1384935  47.5496387  14.2821503  48.5256052  46.7778635
   8.9285636  22.4597812  58.6847782   8.5498214  22.6077700  59.5513153
   9.7083676  23.0145741  58.6662912  30.5516958  11.2429273  20.3325820
  30.8810377  10.6805277  19.6315300  31.2959981  11.3476253  20.9252739
  17.1852183  46.8063498  62.0388079  17.7743995  47.4741173  62.3897886
  16.5610743  46.6421604  62.7457142  31.8449450  77.9185200  31.5225506
  32.0668006  77.0316648  31.2388253  32.6116395  78.2111979  32.0152473
  33.7732220  29.9529457  38.0079579  33.8270283  29.7303700  38.9373636
  34.5618010  29.5697451  37.6238585  19.8953867  57.7922153  53.6982775
  20.5684948  58.1751347  53.1356668  19.8375690  58.3901167  54.4435310
  14.0900421  52.9643059  52.8822136  14.7900689  52.3159075  52.9581976
  13.3392024  52.5579882  53.3150816  67.5481558  49.1547298  56.5333509
  67.6175356  48.3715963  57.0793533  66.7808485  49.6158075  56.8722868
   9.8866469  38.3952928  20.6563830   9.1509277  38.3448911  21.2666368
  10.6087327  38.7427282  21.1799407   4.1906810  52.1154499  28.7418914
   4.0658686  51.1758900  28.8756084   4.1077197  52.4949837  29.6167088
  38.8849235  70.3179502  18.7761903  38.3143115  70.7694244  19.3981290
  38.6139894  69.4011641  18.8244998  26.4156151  42.9882145  12.3649192
  26.5594840  42.0435667  12.4212980  26.0667443  43.1252098  11.4841509
  59.3325329  16.0260332   6.4307350  60.0159836  16.6773140   6.2727493
  59.7805452  15.3150380   6.8889952   2.8576815  70.7778835  54.9241400
   3.5583419  71.0909319  54.3520308   2.7964017  71.4403629  55.6123209
  37.5770593   0.8968587  39.5446253  38.1072783   0.4875921  38.8608146
  38.1894684   1.4604536  40.0174332  74.6303606  30.7960773  10.8858836
  74.6053791  29.9071932  11.2401342  74.2587042  30.7144022  10.0075710
  74.0772963  12.9506290   7.2464079  74.3663025  13.6248720   6.6315067
  74.8773909  12.6763880   7.6945919  14.3151402  10.4544520   2.2885057
  14.8379183  10.1967514   3.0477983  14.9015963  11.0049701   1.7696306
  39.9378777  36.8218493   4.1939288  40.1179314  36.2397456   4.9321467
  39.5751953  37.6118159   4.5947385   6.5243667  51.4394903  27.3792148
   7.1593958  51.3792467  28.0928946   5.7491815  51.8319178  27.7808571
  56.4216185   1.4028223  25.1586604  56.0988665   1.5818603  24.2754793
  56.1082697   0.5196480  25.3537202  32.0842195  35.2650166  50.4499102
  32.0806289  35.8917308  49.7264147  31.4958882  34.5660830  50.1642752
  44.5779514  32.4580932   2.9816389  45.1835871  33.1900215   2.8645191
  43.7486935  32.8698969   3.2244942   4.1996449   9.8700070  39.5066881
   4.2872944   9.1642845  38.8659835   5.0674951  10.2724504  39.5399547
   3.9504939  39.7801757  35.4995418   3.6779937  40.5742168  35.9594035
   3.8687575  40.0007486  34.5716977  23.3202505  27.5500202  41.2235689
  24.2127442  27.2045374  41.2417459  23.4223890  28.4634042  40.9561205
  15.8028400  29.6257234   1.4434940  16.4327359  29.0173554   1.0570339
  15.3111923  29.9678230   0.6968472  67.4473763  53.8546610  41.0415792
  67.1811104  52.9621124  40.8209181  67.7223873  53.8031721  41.9569731
   8.5265368  54.0358829  16.6373920   8.0099010  53.4946012  17.2343302
   7.9456836  54.7614670  16.4085460   3.5716522  51.6204262  54.8341846
   2.6970714  51.4583540  55.1878452   3.6732367  52.5714302  54.8729658
  32.5432396  47.9267454  42.6486111  32.8981423  47.1761703  43.1249619
  32.5839448  47.6672745  41.7281485  53.4215164   9.8946273   9.4729662
  53.5162592   8.9483380   9.3643749  52.5687313  10.0957477   9.0875614
  25.3033972  51.0247612  62.7191544  24.4489241  50.8751678  62.3145199
  25.4663634  51.9598961  62.5958872  40.1845694  65.4197550   6.9246674
  40.8500624  66.0329723   6.6127151  39.4657993  65.5074596   6.2986398
  34.5739722   3.3144218  20.6669402  34.5304561   3.3330810  19.7109115
  35.3099179   3.8865417  20.8844137  19.8944080  16.4757895  26.3168144
  19.3437052  16.9233048  26.9592237  19.2773700  15.9907830  25.7688498
  60.7429981  71.7142868  10.9437490  60.0486612  71.7901182  11.5982568
  61.5195370  72.0696783  11.3760877  28.7953043  58.3308792  64.2145157
  28.4111643  57.5439119  63.8280582  29.2647600  58.0140972  64.9861956
  61.4692116  12.6078749  11.6926551  61.0561514  12.7068388  12.5504541
  62.3761511  12.8811216  11.8305874  22.1306920  35.6952047  30.2931476
  21.9552016  35.8132887  29.3596101  23.0712199  35.5236793  30.3402281
  61.5631247  12.8426194  23.7314224  62.1726370  12.2521174  23.2886577
  60.6962585  12.5044823  23.5068512  59.7571707  10.9159791  48.2625484
  59.9636030  10.0078428  48.0414009  58.8187265  10.9092247  48.4509850
  44.6196270  74.4232368  66.1119843  44.8479319  74.9887609  66.8497419
  45.1586390  73.6416245  66.2335682  19.2178738  67.8221130  43.7846756
  20.1561189  67.8772593  43.6033297  18.8036036  67.8823566  42.9238701
  70.1131248  60.2311897  61.3183975  70.9869242  60.5904198  61.1645985
  70.2704620  59.4090414  61.7826653  49.0490723  16.2870705  39.6422386
  48.9809275  17.1074820  40.1306152  49.3971539  16.5446937  38.7886000
  74.2495441  51.2266970   3.9656731  74.0500450  50.7245874   3.1755346
  74.0158129  52.1276474   3.7423143  45.8468866  18.7162292  59.3509388
  46.5539646  19.3254519  59.5633507  45.5054951  19.0283239  58.5129166
  76.6488743  46.2853861  43.7462521  77.1677780  47.0098543  43.3967924
  76.7524767  46.3525915  44.6954536  80.2215672  27.1852422   3.2669392
  79.4321775  27.0481873   3.7906849  80.5012131  26.3037324   3.0200127
  74.6520758  46.5930843   3.4555122  74.7367430  47.3539925   4.0300375
  73.8582230  46.7630053   2.9484087  35.4404283  54.6882057  43.8614321
  35.2824330  53.7666368  44.0663290  34.6452260  54.9732208  43.4112644
  26.4248729  68.7527037  57.3904562  27.1625113  68.8410807  56.7868757
  26.7673850  68.2245445  58.1115437  53.0409575  23.5713339  59.0110159
  52.7751541  23.3892727  59.9123716  53.7376833  22.9391766  58.8344383
  20.9773946  66.8295860  51.4703703  20.1117444  66.5702581  51.1547279
  21.0847282  66.3532734  52.2936821  22.8624487  13.5541391  49.3804932
  22.3798060  12.7785397  49.0946007  23.0951548  13.3695149  50.2904320
  20.1315880  74.4755650  66.8614578  19.6875334  75.2760935  66.5818071
  20.2196765  74.5693827  67.8099680  55.5987310  66.0540438  37.8122592
  55.2490234  65.1632929  37.7899885  56.4530373  65.9654570  38.2348108
  26.3641429  52.5738144  58.7825155  26.9973874  52.7300930  58.0819368
  26.4178681  51.6326237  58.9483738  61.9914198  66.0400629  12.5121880
  62.1991777  66.7768145  13.0868721  62.7389574  65.9822273  11.9171453
  53.0140352   5.7325429   2.2939399  52.2832346   6.3498163   2.2603054
  53.7872887   6.2667084   2.1123336  35.5781102  52.3364258  45.4019928
  34.8729801  51.7302513  45.1748991  36.3706064  51.9194221  45.0639248
  34.6392298  12.2896862   4.9609435  35.5466747  12.2323847   4.6617943
  34.5416737  13.1943452   5.2581084  35.1173162  75.8137226  42.9152632
  34.5688605  76.1708784  42.2167873  35.7813835  76.4864159  43.0660248
  53.4391165  73.8567638  62.9580069  53.6213160  72.9754210  62.6320171
  53.0705690  74.3191242  62.2052622   8.6552453  67.3663044  66.6410160
   8.8597316  66.7113495  67.3084354   7.8711396  67.0296288  66.2073565
  53.1232405   5.0453907  52.4859047  52.4048567   5.6774044  52.5125742
  53.4324932   5.0723612  51.5804386  56.6152287  20.1844406   8.2057595
  55.7797861  20.2331829   8.6704069  57.1618176  19.6216583   8.7541628
  77.5859451  35.5201697   4.6744102  78.0014515  34.7011471   4.9442014
  78.3091450  36.1429906   4.6015760  24.5365191  62.0390129  31.3332868
  24.2747378  61.2617779  30.8397222  24.5987248  61.7374849  32.2396207
  20.4209089  53.0275583  57.5571012  19.8343098  53.6883593  57.9251719
  20.1213026  52.9172850  56.6547108  80.1176545  77.9215999  10.2858210
  80.2743789  76.9804873  10.2085137  79.3368408  78.0787872   9.7549230
  40.5277300  65.7637024  59.2948246  40.1480579  66.6353655  59.4056225
  41.1276340  65.8560705  58.5546780  31.4174318  59.8332834  59.0895033
  30.7330799  60.1762915  58.5148382  31.0227633  59.8384523  59.9615335
  38.4166074  69.8496294   5.7655543  39.2905354  69.7348928   6.1388046
  37.9715514  70.4389524   6.3745302  16.1621392  74.7488403  43.0797863
  16.1491311  74.6409607  44.0307999  16.5055656  75.6318712  42.9435825
  74.1551828  23.1749749  33.8879251  74.7022343  23.5531282  34.5763779
  73.3539581  22.9077768  34.3383431  26.1409473  76.6983509  47.6319122
  26.0759759  75.7712221  47.8609180  25.3959537  77.1067476  48.0728483
  36.2194872  76.6151094  46.7230272  36.2901068  75.8973312  47.3523474
  37.0939040  77.0040464  46.7042112  31.2564254  53.9259958  59.9084663
  31.3481688  54.0511465  58.9639282  30.9397864  54.7693157  60.2321720
  46.7954302  22.2240472  58.1482220  47.2201586  22.6485395  58.8936377
  47.2142744  21.3652492  58.0910683  28.5493159  57.8472614  20.7488823
  28.0045772  57.0931196  20.5235744  27.9802585  58.4033203  21.2810516
  62.9607773  30.3176665  62.4829817  62.0291615  30.5226040  62.5625086
  63.1961107  30.6104374  61.6025639  47.7649260  71.4906931  39.6328044
  48.5065460  71.0686827  39.1990542  47.1369505  71.6537333  38.9290309
  30.2255607  56.8649912  56.2222767  29.3768620  56.6798544  56.6243505
  30.6979990  56.0336781  56.2665224  66.6323805  24.8815632   9.3984240
  66.3717270  24.8078465  10.3164971  66.2875080  24.0890026   8.9871526
  43.1727505  10.5938292  25.4642797  43.6830664   9.8312020  25.1918697
  42.7890158  10.3380561  26.3030648  80.6757927  12.0889020  11.4609075
  81.1397552  12.9238296  11.5230703  81.0651398  11.5468693  12.1470881
  56.9016948  15.0208236  67.2787806  56.0876018  14.6246196  66.9681264
  57.5800857  14.6459676  66.7170857  29.9245977  62.9441977  60.1397419
  30.0706267  63.8771248  60.2964401  29.1853690  62.9161930  59.5322990
  39.4444418  76.7893410  22.1618080  39.3448472  76.7345476  21.2113833
  40.1562691  76.1819935  22.3634505  24.8453069  65.4809856  59.4567776
  24.6738458  65.4614496  58.5152578  25.7699394  65.2467012  59.5367527
  28.2929373  75.9758711  53.3476543  27.6475310  75.2690077  53.3428335
  27.7704191  76.7774677  53.3221436  27.2115469  67.6281214  60.0843668
  26.4867878  67.8093767  60.6827879  27.6625371  66.8792534  60.4742861
  74.2798424   8.2685870   3.9081743  74.7274351   8.7837684   4.5793530
  73.3977842   8.1369585   4.2558530  76.1073017  51.9180870   6.1656463
  75.7578278  51.8842936   7.0561272  75.3618431  51.6973686   5.6072509
  29.5041776  53.3541489  28.9217544  29.2893648  53.2040215  28.0011320
  28.6982703  53.1432724  29.3932176  11.6969240  49.7708845  56.1433887
  11.4317584  50.3515673  56.8566418  10.8916819  49.3196964  55.8899212
  37.5109874  77.8086161  62.0911694  38.4107839  77.4825140  62.0751858
  37.1094333  77.3669999  62.8394747  60.6494761  25.1033449  64.9842215
  60.7874823  25.2138376  65.9249544  60.5603790  25.9954166  64.6488094
  65.0431776  11.4454234  51.1187506  64.7970486  11.8077469  51.9698524
  64.9283600  10.5003834  51.2184906  39.8366952  45.9037018   2.4826956
  38.9030385  45.6931686   2.4687622  40.2277422  45.3002930   1.8508637
  59.3177271  28.0285621  66.4854288  59.6682310  27.6875734  65.6625652
  59.6908665  27.4596524  67.1587372  19.8221755  66.7768621  15.6971991
  19.0924871  66.2791061  16.0660136  20.4169297  66.1105204  15.3529811
  36.5076041  70.8892632  65.4726505  36.2570095  70.6608009  66.3677692
  37.2530413  70.3205252  65.2800560  13.9101827  77.1175051   4.9621177
  13.2789350  76.9975281   5.6716001  14.6095502  77.6433802   5.3501558
  71.6910934  16.5201783  20.2664804  70.7695770  16.4728713  20.5210352
  71.6710234  16.6827297  19.3233967  29.1695380  66.0255432  49.3796587
  28.9478803  65.2160931  49.8399734  28.8021708  65.9109640  48.5032225
  70.3403282  34.3971777   5.0945854  70.6367970  34.9385166   5.8262217
  69.3956232  34.5459127   5.0539899   5.2930099  14.0389872   6.8363869
   4.7946140  14.8533666   6.9043607   6.0385430  14.1647375   7.4234128
  54.0506649   8.7852275  50.4714394  53.4345818   8.3101785  51.0291147
  53.7481260   8.6133581  49.5797157  22.6700735  70.0661659  20.9994674
  21.8137431  69.6869755  21.1973143  23.0870843  70.1749754  21.8541574
  44.0888023  10.4919469  41.4321184  44.3566561   9.6121860  41.1665869
  44.9106312  10.9482348  41.6127586  41.4000940  59.9040508  56.3351202
  41.1804628  59.8062038  55.4086113  41.9606066  60.6792879  56.3678217
  34.0941620  40.0678349  66.6589260  33.2925248  39.6405315  66.9606256
  34.6498966  40.1111937  67.4370718   6.2604433  44.2793560  20.9782338
   6.3243437  43.5124397  21.5474319   6.2602854  45.0243473  21.5792465
  18.0307901  69.3950319  18.7277496  18.5337126  69.0320826  17.9986632
  18.2827246  70.3180361  18.7564933  37.2174358  75.7279158  37.0512390
  38.0938077  75.9114027  36.7128062  37.1062231  74.7850323  36.9294739
  22.8977132  30.1646709  19.1190732  23.5227108  29.6911764  19.6680856
  22.3835993  29.4779181  18.6944687  13.2171035  44.4551277  62.9670048
  13.1362498  45.0438213  63.7174273  12.4652064  44.6673727  62.4139786
  56.7302799  72.7254009   3.8091615  56.8169355  73.6664629   3.6570969
  56.2698030  72.3992443   3.0359727  73.1022644  51.7927742  29.5944047
  73.5785723  51.7684364  30.4243279  72.4008846  51.1503172  29.7018552
   1.0788842  34.1512990   2.5330681   0.6673476  34.9566531   2.8465518
   1.2199896  33.6308837   3.3239472  20.9843707  71.8733120  63.8654804
  21.4061832  72.6440048  64.2454052  20.0536251  71.9918537  64.0549374
  81.7555618  33.8030791  -0.0874447  81.2534428  33.0590701   0.2450496
  82.6634693  33.4998870  -0.0843063  60.8988571  56.4990807  54.7432327
  61.4222908  55.6992722  54.7938204  61.5433121  57.2067261  54.7311926
  62.5578117  75.1492786  33.0879426  61.6175842  75.0132561  32.9708862
  62.9503012  74.3016529  32.8788733  30.9887171   6.8615276  39.4900942
  30.4273343   7.5807387  39.7796035  31.4355779   7.2032970  38.7156653
  20.7807422  67.3064041  65.2362585  21.5939498  67.2787476  64.7321129
  21.0627627  67.4641466  66.1372662  14.1276670  34.0323377  45.9896851
  13.1860173  33.8692141  45.9356833  14.3907416  33.6430717  46.8236446
  12.1452785  75.4625845  49.8261166  12.4348044  74.5533180  49.7509813
  11.3648355  75.4205513  50.3787231  54.3711281  15.2185750  42.8328037
  54.0032625  14.8906791  42.0122004  54.2212105  14.5125401  43.4615088
  41.7712975  21.6050339  60.7307434  42.6953459  21.4338946  60.5488682
  41.2998390  21.1149931  60.0570822  74.7806978  57.9820538  39.8260832
  74.9629307  58.5141325  40.6006241  74.2659807  57.2459364  40.1568747
  13.9578485  62.6240778  57.2560167  14.0200126  61.8268490  56.7299080
  14.8670506  62.8783941  57.4138403  56.0725212  21.1312842  46.2299681
  55.7522249  21.1613154  47.1314907  56.0079098  20.2086329  45.9834480
  23.9405751  50.3763866  50.2713537  23.2005739  49.7700548  50.3028202
  24.6995401  49.8401213  50.5007553  34.3721628  76.7848253  23.2854414
  35.3195095  76.8591785  23.1703925  34.2585421  76.0180712  23.8470531
  72.4905300  18.4568846  34.7859573  72.8726387  18.7818360  33.9707088
  72.9618120  17.6429069  34.9636221  41.2774706  55.6677914  26.1603093
  40.6873894  56.1085749  26.7716575  40.7471180  55.5249834  25.3763676
  27.7650046  10.6259298  59.8535776  26.9298577  11.0400188  60.0710392
  27.5213242   9.7943580  59.4469547  72.1156359  54.2629480  45.1574993
  72.8197670  53.7910509  44.7128105  71.5108347  54.5066738  44.4567585
  58.1804943  11.9701445  57.7090073  58.5017204  11.5144145  56.9309616
  57.5076246  12.5648034  57.3775578  76.5510321  24.7835088  12.9271019
  77.1049452  25.5528641  12.7947915  75.7873201  25.1164246  13.3984196
  73.7758589   8.2735556  57.6707077  73.1137562   7.7151811  58.0782270
  74.5684052   8.1196553  58.1849241   2.9163048  28.5524440   3.3688173
   2.5369897  27.7633047   2.9820246   3.8491911  28.4959078   3.1620374
  61.8800068   6.9615251  60.5229568  61.3947964   6.1462384  60.3960228
  61.2255144   7.6503026  60.4069471  44.8440504   7.7637005  17.5722647
  45.3208828   8.0950093  16.8112803  44.3791342   8.5271704  17.9146063
  29.4022202  17.3772800  54.1942072  30.0701427  17.6624763  54.8177290
  29.5362258  16.4328253  54.1149616  22.1999598  72.0208883  43.8652802
  22.8710508  71.4362669  43.5130310  21.8033195  71.5258312  44.5820999
  12.8461862  72.0325232  44.0648508  12.8573668  71.8799686  43.1199503
  12.2350049  71.3794374  44.4056892  66.6206837  63.3384466  54.6393204
  66.1210871  63.7558031  53.9375734  66.1479759  63.5683346  55.4392767
  25.8266711  68.3136415  29.1653562  24.9953175  68.2807541  28.6920691
  25.5823898  68.5379553  30.0632668  21.5189385  37.2929692  55.9757662
  21.6205692  37.3370528  55.0249958  21.3022327  36.3772893  56.1512756
   9.1916645  58.3518648  50.6766987   9.1815698  58.8639641  51.4853287
  10.1208758  58.2247782  50.4852676  32.2961020  52.8893471  54.9189520
  32.9065514  52.2210836  54.6074867  32.5940180  53.6983824  54.5030975
  16.1498010  67.4170685  59.7075891  15.3116083  67.7357197  60.0424433
  16.2861729  66.5833569  60.1576519  30.8277416   3.8538536  52.1773005
  31.7006969   4.1377369  52.4485779  30.9135079   2.9098630  52.0440483
  57.4439240  74.0244818  36.7449856  57.7263975  74.5815754  36.0196638
  57.9914665  73.2425880  36.6737652  23.4535575   0.3763803  22.7851105
  22.5226116   0.2672338  22.9791737  23.7579226   1.0194261  23.4254885
  16.6415203   1.2428427  47.5885201  16.8466043   1.5630859  48.4669352
  17.1581304   0.4420254  47.4988651  58.3701992  14.2004275  62.5736618
  58.5417795  13.9339626  61.6704512  59.0218973  14.8786604  62.7512026
  17.8202331  76.7467833  48.2339525  17.7309203  77.3701763  48.9548111
  18.4205973  76.0798311  48.5670757  78.3299398  51.3699436  21.1158895
  79.0835333  50.7797623  21.1118126  78.2533264  51.6668415  20.2091289
  33.4323311  62.2794247  46.9493580  32.8855491  62.6188993  47.6578903
  33.9404511  63.0355740  46.6556168  23.5813189  35.8735490  54.2132759
  24.4029236  36.3274050  54.4009304  23.0466747  36.5243292  53.7584400
   7.8294629  42.7657223  49.5048380   7.7978313  43.2635450  50.3217840
   7.7380800  41.8526173  49.7770882  26.6385603  23.5137868  45.9284878
  26.1916924  22.6819658  45.7715988  26.0356903  24.1767478  45.5919456
  65.4617453  14.6195424  16.7428792  64.8155832  14.8885143  17.3958421
  65.9685278  13.9327681  17.1761727  50.8703423  72.3042870  49.0972710
  51.0904551  71.4205074  48.8027859  50.9629965  72.8475523  48.3146429
  10.6861937  37.3397088   2.3473577   9.9280369  37.9198050   2.4174903
  10.4257596  36.6820931   1.7024180   5.9742171  40.6756687  61.9673443
   5.7182384  39.7710371  61.7874908   6.8107677  40.7824087  61.5145540
  52.4338961   2.2433585  33.9943194  52.8927708   2.3982643  33.1686854
  52.5382805   3.0596676  34.4831705  15.6166637   1.4399116  30.4012465
  14.9172354   0.9543583  29.9639034  16.3106394   1.5034612  29.7450519
  66.0681725  73.6424112  53.7700319  66.7234850  74.3159580  53.5880041
  66.5508270  72.9575300  54.2328644  24.0500093  32.0736980  17.8484547
  24.9958277  32.0092225  17.9807532  23.6933684  31.3026214  18.2894516
  47.3433590  36.9108915   7.2656286  47.6198912  37.1506953   6.3811761
  46.4838123  37.3197269   7.3669451  47.6134109  39.0244412  13.9377630
  48.2786751  39.7108126  13.8873076  47.7511263  38.6199021  14.7942758
  53.2576895  14.2437243  48.6189556  53.0239677  14.9837685  48.0586529
  53.5953951  13.5828757  48.0144167  11.0811698  61.9867039  24.8161149
  11.1273181  62.9039478  24.5463586  11.0716355  62.0185804  25.7727385
  34.6308970   5.0721407  15.4375577  35.4350233   5.3605580  15.8693290
  34.1778898   5.8835751  15.2082276  54.3429470  75.2733660  48.5734224
  55.0922871  75.0038338  49.1045237  54.0579700  74.4707823  48.1365252
   9.2886412  41.9203138   2.4557950   9.4873953  41.3964415   3.2318646
  10.0862479  42.4250841   2.2968504  66.4066267  23.7118340  51.6146231
  66.2386322  24.5326591  52.0774984  65.8497047  23.7568259  50.8374214
  22.3571754  76.3146067  41.3105059  22.5846839  75.4331779  41.0146141
  21.4207864  76.3940811  41.1285925  26.0530114  75.2435732  60.0363731
  26.8638754  75.7105017  59.8346138  26.3266754  74.5220518  60.6027222
   4.6394646   3.4238988   1.0240588   4.8212877   2.7937317   1.7212398
   3.6847934   3.4366348   0.9557068  40.6840038  13.8891792  37.3566413
  40.2685738  13.0561686  37.1336150  40.0942802  14.5538092  37.0006633
  48.3941269  52.3447704   0.3216978  48.0948687  52.4767160  -0.5778940
  48.8129330  53.1722450   0.5585932  30.5098891  27.8217554  53.6788177
  30.4444885  28.5228729  53.0304432  30.5857253  28.2772231  54.5172834
  43.9140797  25.4275870   6.4913487  44.0945625  24.9151945   5.7032424
  43.5835886  26.2637401   6.1629337  81.9083214  73.6394787  31.5576363
  81.8935204  73.4059477  32.4857926  81.9637489  72.8003788  31.1003923
  62.5408316  71.1663485  39.2960620  63.2132816  71.5252590  38.7170744
  62.0329571  70.5779409  38.7374258  41.2402248  72.7354574  21.8620086
  41.0692406  71.8112516  21.6808081  41.4982700  73.1016302  21.0160995
  56.9471455  66.3750124  50.8917570  56.0449648  66.0919142  50.7429028
  57.2600889  66.6419983  50.0274563   2.5273317  43.2885456   6.7943460
   2.2818464  43.4919739   5.8918011   2.7735212  42.3637962   6.7729706
  63.3035707  14.8493505  55.7799625  64.2061281  14.9124980  56.0924244
  62.9199791  14.1412544  56.2973499   9.7526890  36.2510872  10.5450010
  10.5727684  36.5822697  10.1789105   9.9053437  36.2249851  11.4895892
  81.9834518  13.2438922  14.4680166  81.8537617  14.1878688  14.5592308
  82.8753281  13.1560540  14.1317451  32.0707750  53.3849525  66.3283443
  32.6244593  53.9634848  65.8039761  31.2108827  53.8053894  66.3214636
  22.6777244  24.4398618  13.2022512  22.5967336  23.5296130  13.4870696
  23.1976914  24.8598552  13.8874304  34.9397612  12.8873992  56.9093847
  35.0707436  13.5553384  57.5823832  35.8203244  12.6978266  56.5854979
  77.3864508  74.3294048  52.8394270  76.6497850  74.4061804  52.2330761
  77.6069450  73.3979797  52.8317070  66.2158680  21.5263724   2.7516818
  67.1356249  21.6615748   2.9797298  66.2050200  20.6902647   2.2858104
  17.4523747  17.2739470  45.6956339  17.9858541  17.3593068  44.9054766
  16.5500093  17.2718751  45.3763199  17.3811865  60.5598021  29.0431046
  17.7678394  61.3290358  28.6247587  16.4507675  60.6102800  28.8240051
  73.7555408  35.9810829  14.2700255  73.1444120  36.6583490  13.9800811
  74.1967678  35.6978679  13.4691906  31.7195535  20.0102878  58.5106468
  31.6508484  19.8731577  59.4554806  32.6554394  20.1364923  58.3543730
  37.7711368  59.6208429  43.0721474  36.8791747  59.7900629  42.7688313
  37.7557850  59.8504782  44.0012646   5.0110298  11.8934882  15.8957851
   4.8193252  11.3778293  15.1124728   4.5053065  11.4712596  16.5901899
  20.4603577  71.7580605  41.7743587  19.9445379  70.9668303  41.6190672
  20.8731723  71.6116428  42.6254654  82.0272190  58.0059671  56.4948797
  82.4761488  57.3684120  57.0500565  82.6692070  58.2313395  55.8216095
  33.2650304   2.7375150  36.0556817  33.3004951   3.1744635  36.9065928
  33.8652349   1.9968340  36.1415792  32.0175420  77.9688548   4.1095451
  31.5580236  77.3155901   4.6371058  32.9455005  77.7853255   4.2559901
  36.3109660  63.4455395  22.7172232  36.7112374  63.5536671  23.5799646
  37.0041466  63.0654621  22.1775222  57.8734827  24.6153569  55.0270748
  57.3469687  24.7324729  54.2363167  58.5843229  24.0337229  54.7575521
   0.7442951   2.6602262  39.8474789   0.8926450   3.5724625  40.0965738
   1.5065120   2.4300298  39.3161893  81.4115429  25.4290724   5.9046268
  81.7609692  25.6679988   6.7631406  82.1866798  25.2987885   5.3583485
   9.6359515  23.6025929   3.5314217  10.2444994  24.2713261   3.2172641
   9.6110672  23.7280488   4.4800383  12.8621387   8.4536409  39.1121745
  12.6507592   7.6894015  39.6483541  12.4981272   8.2498813  38.2506585
  67.2537327  37.1365356   3.3541813  67.5117874  37.8983903   3.8730407
  66.3447905  36.9723892   3.6054060  22.8109002  58.6944532  29.3880868
  22.7377915  58.3688831  30.2852440  23.2852769  58.0063486  28.9214945
  26.9881248  70.9614706  36.7959642  27.1665168  70.2840233  36.1436844
  27.7769637  71.5036392  36.8000937  29.8417854  51.1770630  42.4479961
  29.7744536  51.2774992  41.4984608  30.7216501  51.4887047  42.6600122
  67.4379015   5.3208691   9.9893123  68.2417631   5.7187057   9.6549970
  67.6146030   5.1675338  10.9174800  26.6909122  16.8365991  48.6459160
  25.9094143  16.4538825  48.2471418  26.4819837  17.7661538  48.7381506
   7.6103467  19.4904435  61.5990829   7.2082132  20.2651286  61.2061644
   7.8195429  19.7571290  62.4942636  69.0061474  13.3958387  57.9159451
  69.2909288  14.1411006  58.4448290  68.9330196  13.7461793  57.0281696
  55.7444382  15.9903789  54.8453617  54.8281622  15.8650720  54.5984411
  55.7738876  16.8719101  55.2172041  43.4627676  71.4447021  47.9938841
  42.9080391  71.7986345  48.6890316  44.3443727  71.4464664  48.3667088
  51.8333387  12.7958095   6.9366705  50.8943462  12.8918016   7.0957565
  52.2380686  12.9526460   7.7897996  77.1709156  44.9947739   3.5274565
  76.3155746  45.4120827   3.4251064  77.7872086  45.6118107   3.1328928
  48.5876989  50.7210779  34.6135306  48.9990902  51.5254879  34.9296117
  48.4870577  50.8577013  33.6714911  60.6351948  10.5554521  43.4190464
  60.9540367  11.0631132  44.1652727  60.2381802   9.7774953  43.8107014
  70.8467817  52.4137926   6.7375374  70.6305933  53.0002117   7.4625248
  71.3810682  52.9472399   6.1491442  16.3563383  24.6570468  63.1705523
  15.7595539  24.3167305  63.8370848  17.2187734  24.3373275  63.4355402
  15.2843440  14.2828166   7.0107323  14.9997818  15.0343108   7.5308412
  14.5847404  14.1564298   6.3697851   5.6668556  32.3553348  13.0610669
   5.3180891  32.5001502  13.9406252   6.1252451  31.5171123  13.1201863
  42.9790163  26.6257191  65.9013462  42.2172117  26.7886591  66.4575291
  43.4540796  27.4566960  65.8963966  58.6591196  22.2372556   7.1476746
  58.0899811  21.6720104   7.6699877  58.6660719  21.8337917   6.2796879
  38.7456942  69.5990849  65.9477806  39.3491006  68.8981485  66.1944008
  38.2969666  69.8264074  66.7621517  18.6894584  63.7536955  62.7449894
  18.7762964  63.6713886  61.7952967  18.2631505  64.6009588  62.8739834
  67.0094633  67.1106815  32.5812793  66.8399668  67.7203798  33.2994509
  66.5066385  67.4609995  31.8459725  57.1900797  37.6656580   9.4141161
  57.1443224  38.1229186   8.5744435  56.2758398  37.5287271   9.6624064
  55.4777622  60.7749557  55.0465775  55.9247541  61.5402651  54.6850061
  54.9314308  60.4552555  54.3285608   7.2218812  29.8801923  42.0632172
   7.3097301  30.0811481  41.1314821   7.8610301  30.4491019  42.4922419
  62.9629946   7.8575611  36.5627384  63.7655544   8.3689958  36.4599538
  62.5840759   8.1690967  37.3846865  15.0478983  32.3372245   0.5225099
  15.5778861  33.0470371   0.8851511  15.5097485  32.0764923  -0.2743244
   7.4558759  14.6062326   8.6936319   7.6070869  13.7472498   9.0879858
   8.3299410  14.9213839   8.4635848  28.2508898  23.6723018  59.6640968
  28.3720946  24.4642425  59.1402912  28.7017941  22.9872942  59.1704512
  36.9449997  63.2026482  51.3920593  36.6379523  63.1357241  52.2962046
  37.7157688  63.7680149  51.4420938  66.7701864  16.6756546  23.0735755
  67.2874689  16.1293030  22.4818397  67.0935869  16.4553440  23.9471364
  18.6251497  68.8365936   4.7106338  17.9110134  69.3722200   4.3651700
  18.3832979  67.9389811   4.4825169  23.8175702  60.4329348  63.4642410
  22.8916478  60.4308462  63.7069130  24.1121101  59.5384502  63.6356258
   9.9827725  30.6641197  15.5116427   9.2422503  30.8681917  16.0827947
  10.1340413  31.4703298  15.0183117  18.7965357  71.9969177  19.5252323
  19.4368863  72.3296070  20.1541209  18.9152265  72.5453043  18.7497234
  49.3225813  55.2402210  51.9453144  50.2141285  55.5377674  52.1265411
  48.7960339  56.0394812  51.9583654  50.2988863  40.9659147  16.3742995
  50.8289909  40.5900288  17.0770991  49.4511223  41.1426735  16.7820799
  74.5686054  27.8865075  55.4534435  74.8352051  26.9788361  55.5993462
  75.3093624  28.4067035  55.7647467   8.2139003  70.0672865  43.8854933
   8.2744116  70.3783560  42.9822731   8.2634848  70.8622074  44.4164133
  56.3627195  13.6616564  56.6922617  56.3719654  14.3244696  56.0017395
  55.5370283  13.8081229  57.1538019  66.8502855   5.7669729  54.4275570
  66.6448832   4.9499980  54.8820829  67.5591803   6.1548269  54.9406528
  12.4290061  40.4409647  47.6706648  13.0610001  39.9245024  47.1705866
  11.5787220  40.2010679  47.3022938  79.2624617  38.8381052   5.3309733
  80.0490379  39.3695354   5.2080435  78.8675547  38.7898183   4.4603693
  22.8315830  62.4888325  17.6471376  22.6647353  61.5569162  17.7883065
  23.7834096  62.5729704  17.7035391  24.9550438  72.9938650  63.6602449
  25.8963084  73.0338764  63.8295174  24.5676041  73.5621834  64.3259287
  59.8920202   1.5458634  61.4694786  59.7111177   1.2778029  60.5685616
  60.7006121   1.0873958  61.6979980  65.2156019  72.1390438  25.8607221
  65.2047873  71.3915682  25.2628946  65.2400684  72.9045725  25.2866149
  81.4951706  68.1340885  32.2907424  81.5440464  69.0166187  32.6581502
  81.2937546  67.5735283  33.0400348  11.1181152  44.7205877  65.6466484
  11.4458239  45.0084209  66.4986992  10.3959239  45.3183603  65.4534101
   7.1049845  26.8276644  14.4132841   7.7405542  27.5308824  14.2799985
   7.1866882  26.6035008  15.3402722   1.3106185  75.4326296  31.1710429
   0.6243174  74.7719240  31.2642598   0.8611866  76.2661552  31.3106060
  46.7203236  60.6105089  45.7107782  45.9462404  60.1858091  45.3411102
  46.3711691  61.3354349  46.2292433  59.1228867  23.0170417  61.3812256
  58.7144804  22.2896957  60.9117508  59.3800211  23.6315441  60.6938410
  74.1233587  70.2768278  45.5649519  73.9653540  69.7402620  44.7881889
  74.7629023  69.7787857  46.0740423   9.8655516  77.1781063  16.0204470
   9.9987805  76.9488573  16.9401896   9.3435293  77.9799986  16.0466719
  29.3580890  34.1890836   3.5645950  30.2413654  34.0102816   3.2419753
  28.9709544  33.3234406   3.6950633  57.9987288   9.6818078  59.1957760
  57.7477694  10.5847192  59.0008307  57.5046206   9.1549504  58.5676718
  31.8863940  75.9040737  49.0922880  30.9393287  75.7656574  49.0803289
  31.9913387  76.8506432  48.9962530  29.7944641  23.6630821  34.1231656
  30.4020953  22.9346704  34.2513490  28.9623213  23.3453298  34.4735980
  23.0984831  29.0902233  11.7897868  23.2323885  28.7331247  12.6677287
  23.4482002  29.9799871  11.8372214  61.2525892   0.6066748  56.3269234
  62.1872854   0.4031325  56.2931061  60.9947968   0.3999417  57.2252750
  22.1187234  50.4310703  28.6143756  21.2253499  50.2104139  28.8778639
  22.0619655  50.5712080  27.6691914  22.4101710  52.9392624  21.6016579
  22.4937987  52.6622581  20.6892419  21.5731645  52.5731659  21.8873549
  26.0797572  49.7115088  59.6139526  26.1600280  48.7663364  59.4857216
  25.8902073  49.8114014  60.5468607   1.4096138  25.9695053  63.0788231
   0.4812565  25.9494376  62.8464842   1.4205931  26.2331748  63.9989281
  63.2468414   4.2288995  55.2881479  63.5519600   4.9564353  55.8302021
  62.4401188   4.5514369  54.8863983  25.4168773  61.9428921  65.5479479
  25.4409695  61.9872236  64.5920801  24.7259927  61.3091373  65.7409859
  78.4475279  61.2372303   1.3077439  78.6885071  62.0841455   0.9323939
  78.9701605  60.6012964   0.8191943  38.4821200  51.6971684  13.1976819
  38.2938170  52.3323393  12.5067902  38.4729362  50.8496571  12.7528572
  77.1630478  71.1655998  17.6674521  76.3260269  71.4962530  17.3414218
  77.6974249  71.9496202  17.7938700  78.9550543  26.5166426  28.8205743
  79.0002346  26.0705948  29.6662855  78.1859446  26.1407471  28.3923197
  78.6330271  53.3729935  11.1493778  79.5811510  53.5013819  11.1777711
  78.2759571  54.2521095  11.0233438  34.1863632  48.2223606  14.7314596
  33.3625817  47.7396441  14.6636653  34.2718911  48.4203672  15.6640422
  69.7050571  20.6610036  49.8160410  69.0066099  21.2437153  49.5179701
  69.7032499  20.7527733  50.7688284   5.3597420  30.6201839  55.2329826
   5.8664751  30.0982428  54.6108627   5.4166543  30.1341391  56.0556316
  36.0325527  64.8057556  35.7940650  35.4122519  64.3284845  35.2430058
  36.8742108  64.3797779  35.6316328  12.3052657  29.6837759  17.4892747
  11.9226170  28.8566089  17.7818596  11.8941236  29.8511672  16.6412342
  81.0900974  52.2478056   0.5375662  81.3591480  52.9774809  -0.0204796
  81.5958786  51.5013695   0.2162365  81.7238235  16.7948711  61.6101837
  81.5070152  16.7824149  62.5424242  82.6631927  16.6134083  61.5803099
   5.6568086  14.3863964  25.1950741   4.9936146  14.4686842  24.5097756
   6.2234402  15.1480985  25.0727224  42.5639725  62.2171164  57.7301788
  42.5326824  62.7231884  58.5420561  43.4906244  62.2057915  57.4905682
  19.0487182   9.9194950  59.5979404  19.4693947   9.4347256  60.3080559
  18.7138402   9.2417413  59.0107965  66.6366053  76.1078835  11.0546899
  66.9740486  76.8986845  11.4753950  66.2426472  76.4195490  10.2398932
   2.6603469   3.3165503  46.8458748   3.1019780   3.8890639  46.2186432
   3.3171284   2.6583093  47.0730066  23.0689502   9.0256578  63.1264687
  22.2063518   8.8891542  63.5182858  23.4979677   8.1722385  63.1885242
  66.2761259  54.0847683   4.5479873  65.4832697  53.6813211   4.1946504
  66.0026884  54.9653625   4.8049167  67.8460503  40.6233644   1.7741124
  67.2986126  41.3483572   1.4725715  67.6889181  39.9244380   1.1392568
  67.8071737   6.9773364  48.5019779  67.5944710   6.0441154  48.5113907
  66.9604731   7.4150985  48.4142256  17.7681279  36.9603992   1.2120236
  17.3298085  37.4084592   1.9354540  18.6657333  36.8318009   1.5186141
  67.0832491  32.8309751  41.3928223  67.8299141  32.4496412  40.9309721
  67.2735453  32.6828718  42.3191500  26.8302917  39.7689104  20.4379296
  27.7303314  39.4776630  20.2918673  26.4301777  39.0641570  20.9473062
  44.1055107  38.3844137  58.0254126  44.9107170  38.5322118  58.5214329
  43.4914446  38.0266666  58.6666393  40.9518147  17.7683902  52.5342512
  41.7267847  17.7591014  53.0960035  40.9887409  16.9369292  52.0614481
  78.1736946  20.4299736  16.6359615  77.6975155  20.8986616  17.3213935
  78.8741493  19.9724126  17.1009719  28.5830498   3.0171698  11.6168141
  28.0270004   3.6393881  12.0857358  29.3176365   2.8584266  12.2096169
  45.4615545  67.7327299  59.5499039  45.4761124  66.7896223  59.7128820
  44.5765781  67.9067659  59.2293358  47.5551510  51.3247347  26.9734216
  46.6018248  51.2981272  26.8916035  47.7131081  51.8307495  27.7704358
  36.0812736  73.2490349  40.6080294  36.0245037  74.1601562  40.3201675
  36.3553214  73.3037281  41.5235281   1.9423932  29.3662357   7.3109335
   2.8584167  29.5528150   7.1052134   1.4797649  29.4959784   6.4830607
   3.9177909  28.5972667  12.7585769   3.1787294  29.2024684  12.8198326
   4.6594435  29.0883565  13.1121516   0.6696786  62.8854132  16.3547266
   0.7775646  62.2449446  17.0578587   1.0003690  62.4416637  15.5737269
  37.8845119  34.0077233  56.2156916  37.3084521  33.4384346  55.7054949
  37.2908282  34.6130013  56.6599941   4.3521917  51.2152290  14.3754196
   4.5599702  52.1457767  14.4599259   5.1739681  50.7671642  14.5758092
  50.4671431  12.1043468  52.0012093  50.3751230  12.9818058  51.6299534
  49.9002218  12.1099281  52.7724457  21.9819498  69.2785072  52.0729828
  21.7068791  68.4175873  51.7577267  21.1783504  69.6809340  52.4024010
  34.4932032  30.5312538  17.0819950  34.2264915  31.3075876  17.5743365
  35.2055073  30.8368540  16.5203333  46.0509872  70.2119350  41.4887524
  46.1586761  70.9169340  42.1271992  46.8158722  70.2866554  40.9181356
  47.3208427   5.7893521  55.0575542  47.7478361   6.6339117  54.9139309
  46.4684057   6.0124570  55.4314661  32.3110580  67.9890823  60.9244680
  32.8215647  67.9551029  61.7334557  32.8521776  68.4982491  60.3209972
  46.5500784  68.2101965  53.0204535  46.5270281  67.9472113  53.9405251
  47.4801445  68.3310366  52.8291130  55.1578617  77.0445108  66.2653446
  55.2554035  76.2415886  65.7534504  54.2576170  77.0142221  66.5891838
  64.2437410  45.7287788  54.7551441  63.8893127  44.9557877  54.3157148
  65.1927519  45.6077051  54.7244072  35.6317282  69.3447161  49.4956684
  36.1945009  70.1003790  49.3268776  35.4717851  68.9672422  48.6307049
   0.7583079  46.8410492  10.2874386   1.6248858  46.6566515  10.6497526
   0.4909192  46.0192204   9.8759371  71.6012621  77.8723812  53.5198975
  71.7637777  77.6669931  52.5992250  71.9059849  77.0993900  53.9951468
  70.7562399  32.1313572   3.3500141  70.6278753  32.7696061   4.0517217
  71.5857267  32.3844147   2.9448622  42.4010944  37.3045278  59.7249603
  42.4085712  37.4218488  60.6749153  41.6808271  37.8568888  59.4210720
  79.2086506   3.1612447  43.0896044  79.9362516   3.2499552  42.4740028
  79.6226358   3.1701687  43.9526081  65.7059669  34.1059113  17.1370804
  65.9210014  35.0345349  17.2245634  66.4109135  33.6522627  17.5991261
  64.0547419   5.9268159  30.6608224  63.7899637   6.6686755  31.2046671
  63.6006498   6.0650611  29.8296046  47.7489805   0.7748679  58.9366198
  47.3462629   0.0142044  58.5177660  47.0090151   1.3081998  59.2268658
  11.4518082  72.3448992  56.9897652  12.1558392  71.7084503  57.1142912
  10.6912696  71.8164635  56.7477512  73.3711100  21.8458366  61.9721842
  73.6977100  22.1702409  61.1329412  73.5780621  20.9113073  61.9646597
  65.1308632  49.5387506  28.5484624  64.8312712  49.7542906  27.6652741
  65.8475637  50.1511574  28.7143850  79.0076447  54.4618511  60.2463865
  78.3389711  53.7770367  60.2346706  78.9663076  54.8519373  59.3732548
  11.5554154   8.1693149  60.4905701  11.2442005   7.2649324  60.5289078
  10.7623529   8.6991543  60.5715179  73.9121294  37.0470905  65.3914642
  74.2500544  36.2307405  65.0232077  73.5661507  36.7980981  66.2485123
  76.7221594  16.0734820  60.7385635  76.7072010  16.6159332  61.5270805
  76.7046261  16.7008829  60.0158691  25.6383657  75.2063751  50.4040051
  25.8456159  74.9087191  51.2898302  25.7791448  76.1528015  50.4302788
  76.7796803  45.3694963   6.6411513  75.9020185  45.7402611   6.7332649
  76.9228315  45.3248930   5.6957686  49.9256659  74.4566202  55.6192350
  49.3794680  74.7137976  56.3620377  50.6990099  74.0572119  56.0175276
  21.6455412  13.0341947   5.5273175  21.5593696  12.8182411   6.4558482
  20.7543731  12.9727280   5.1834095  19.1145110  35.1683354  12.7194226
  19.4096565  34.9684310  11.8310750  19.5726883  34.5352745  13.2721794
  21.1283875  64.5998049  17.6539493  21.8625903  64.0253353  17.8711247
  21.5174723  65.2961159  17.1248055  55.1949358   7.9508477   8.6476910
  54.5049715   7.3090118   8.8157147  55.3079319   7.9377651   7.6972741
   7.6346111  31.7806911  64.1866827   7.9545897  31.3619995  63.3875942
   8.3247155  31.6250396  64.8314810  50.3902960  52.9641056  35.1602840
  50.9358215  52.9562140  34.3737912  49.7881889  53.6961460  35.0268030
  16.2090909  66.6909266  42.3068047  15.3427935  66.6197157  41.9059420
  16.3423860  65.8480406  42.7404022   3.0064830  41.0150528  10.8167505
   2.1898298  41.4508200  10.5729973   3.6837280  41.4871597  10.3323054
  31.8300486  33.9049411   3.1683281  32.3613095  34.2035174   3.9064658
  32.4005485  33.3027387   2.6907161  33.8604760  62.2596455  64.1892481
  33.8801312  62.9979753  63.5803890  33.0862999  61.7584276  63.9330006
  49.1572857  71.5631962  42.6337957  49.5168972  70.6865692  42.4980211
  49.1861153  71.9706297  41.7681170  10.0318718  45.5831146  15.3961599
   9.8311913  46.1809731  14.6760738   9.4009840  44.8699331  15.2982366
  10.0709867  67.9783392   2.4097797   9.7969687  68.3197117   1.5585381
   9.2875588  67.5558281   2.7618542   0.4310288  55.0249195  38.9576173
  -0.1794658  55.2484083  39.6601725   0.1824822  54.1379070  38.6974907
  45.2304411  41.7193079   4.8094156  45.4208755  42.6371145   5.0033265
  45.5734348  41.5850115   3.9259285  32.1463251  51.4208555  12.3335540
  31.7397189  50.7540703  12.8869998  33.0014062  51.0551739  12.1069574
  60.0167656  18.0146611  43.3767319  59.4374180  18.5684967  42.8534269
  60.4534769  17.4527168  42.7366304  34.0500259  75.2933311  33.3917522
  33.8724899  76.1502886  33.0040240  33.9197373  75.4237843  34.3310285
  12.2674131  51.0706949  53.7014532  11.9445229  50.6296253  54.4872236
  12.2872698  50.3855801  53.0332804  10.3366899   5.5920613  63.6959743
   9.9246848   6.4560032  63.6865377   9.8811901   5.1170611  64.3910456
  24.0601707  21.6814494  44.7470427  23.7551117  22.0450807  43.9158106
  23.3688354  21.8997240  45.3720570   3.0450639   6.6122460  67.5143051
   2.3970900   5.9618592  67.2434568   3.2381883   7.1045864  66.7164755
  12.5478971  14.4345498  51.5750599  12.9001844  14.8783481  52.3465300
  11.7110109  14.8689079  51.4101744  20.0146508  21.4989972   8.3574694
  19.1466880  21.1290669   8.1961501  19.8423028  22.3885465   8.6660594
   8.2328808   5.4389203  20.5053210   7.4895138   4.8406610  20.4296708
   9.0019751   4.8814040  20.3874207   5.9491909  24.1469240   9.5524651
   5.3803837  24.8540020   9.2479432   6.1477613  24.3736982  10.4609668
  14.6501672  28.6301517  15.5408251  13.8537836  28.1512547  15.7703078
  14.3722415  29.2462683  14.8630428   1.3170406  68.8917637  45.5737734
   1.3090166  69.0295744  44.6265793   0.7046701  68.1699514  45.7159853
  49.3426228   8.5759163  17.9467702  48.6102486   8.2891315  18.4923089
  49.0105677   8.5189861  17.0508182  35.4964232  56.8630791  54.0675402
  34.8234844  57.5432301  54.0395021  36.2407637  57.2432184  53.6009741
  53.6142540  47.5844765  20.1662612  52.9716539  47.7996111  20.8422899
  53.2263422  46.8487120  19.6925473   5.6467086  26.8652296  48.0650663
   5.0022292  26.3174796  48.5132313   5.4745513  27.7499723  48.3872843
  13.3176446  62.1422529  47.8014660  12.5074208  62.1435976  47.2917938
  13.0269885  62.1240759  48.7132883  64.7837782  22.4994755  27.3409772
  64.5209789  21.9823050  26.5795946  64.9223137  23.3812666  26.9953132
  14.5028877  76.9998646  46.6298342  13.7004972  77.1741438  47.1218014
  14.9421883  77.8488207  46.5795803  76.8389034  27.4620461  42.4325180
  77.2870398  26.7492962  41.9771099  76.5878916  28.0701423  41.7372179
  20.3531671  11.9316876  58.7371397  19.9429512  11.1487281  59.1044664
  20.1175642  12.6329255  59.3445826  26.6526675  15.8217263  66.7650461
  27.0049405  15.1089990  67.2981071  25.8194923  15.4850221  66.4353800
   1.5231809   5.4637504  60.2694702   0.9718733   4.8257744  60.7225466
   2.3384735   4.9939322  60.0939655  74.0143156  28.1684303  33.1865263
  73.9406395  28.5718250  32.3216128  74.7460413  27.5568724  33.1040359
  45.9949827  73.0083227  51.3787985  46.9484138  73.0901623  51.3564253
  45.8284378  72.3246288  52.0276928  60.8846283  18.0306494  60.1026678
  61.5078115  17.5480914  60.6458187  60.1663876  17.4147868  59.9574947
  33.2535148  73.1693220  59.7614765  33.3368039  72.4562454  59.1283751
  33.4142590  73.9628887  59.2509413   3.9263898  19.6728051  26.1759377
   3.1487456  19.1340303  26.3216186   4.4341063  19.5835912  26.9824719
  11.4461803  51.5452242   5.5533922  11.5764844  52.4274778   5.2057147
  10.9326303  51.6753817   6.3506103  28.5718417  54.5224953  36.7966914
  28.6614966  53.8255119  36.1467600  27.9531717  55.1382160  36.4037967
  41.9939327  56.8169880   2.8511649  42.6936769  57.4672413   2.7898958
  41.5241194  57.0455551   3.6532044  51.4751387  24.3675637  67.0727205
  51.9246817  24.9898267  66.5009403  51.2660360  24.8723626  67.8586531
  29.9055672   0.7411724  46.7678022  30.4244494   0.4488414  46.0184431
  29.1694760   1.2141052  46.3795519   8.2773292  12.2140813  57.4584627
   7.5072074  12.7753007  57.5488853   7.9578131  11.4424849  56.9907236
  65.2210712  17.2806871  34.2651176  64.9228334  17.1074247  33.3722210
  64.4332647  17.1939909  34.8018408  82.0172310  14.3878090   9.6056485
  82.6466656  15.0232828   9.9465501  81.2177086  14.8947847   9.4643056
  60.5529690  59.6355057  58.7990284  59.7893095  59.9734211  58.3311939
  60.7533646  58.8070011  58.3635378  12.5349677  33.1832814  25.4888749
  13.4834778  33.2870078  25.4127121  12.2156012  34.0575218  25.7123423
  75.2265739  39.6853232  60.2608299  75.8318520  38.9453483  60.2127743
  74.3640661  39.2829990  60.3630209  11.5146136  46.4326334   2.3806091
  11.2479889  46.9046116   1.5917006  10.7015800  46.3043070   2.8692192
   8.7686491  22.0466399  64.9720812   8.0647361  22.6575136  65.1901865
   9.0646231  21.7103672  65.8179808  26.7719722  75.2899885  37.9519558
  27.0685053  74.9818611  38.8083196  27.5789046  75.4577017  37.4651718
  66.9961023  66.3090467  17.7423930  67.7011395  65.6969595  17.9533529
  66.3648081  65.7861137  17.2481906  68.3809090   0.7659569  61.5018177
  68.1745672   1.6180189  61.1175728  68.7492037   0.2595859  60.7778168
  79.0763569  57.1992111  13.0765831  80.0055981  57.1118259  12.8642154
  78.8380718  56.3554478  13.4606624  10.6188893   3.0603585  49.9213886
  11.5463829   3.0232811  50.1550817  10.3010058   2.1682572  50.0604486
  25.4147744  31.2547398  55.9661341  25.3092599  30.3869152  55.5762911
  25.8528280  31.0905170  56.8012238  71.9588709  17.1754682   7.9976934
  71.6413450  16.3658178   8.3975381  71.9765091  16.9882143   7.0591539
  11.5196741  32.9954243   8.9598697  11.5214384  33.3074498   9.8647833
  11.2989354  33.7684965   8.4403843  55.2764940  65.4795837  28.6505580
  55.0713396  66.2750769  29.1418171  54.5635748  64.8768997  28.8620877
  67.1783304  43.9596510  20.5179739  67.0671463  43.7667131  21.4489126
  67.4878788  43.1373262  20.1382494  29.5189953  45.8553267  36.7096782
  29.0457916  46.1963034  37.4686551  29.0845776  45.0262737  36.5092182
  12.5858235   6.0566866  24.3186450  11.9704378   6.6603816  24.7346783
  12.5576544   5.2714634  24.8653293   4.2297187   1.1835698  51.2294674
   3.4643260   1.3060403  51.7910814   4.3846497   2.0460573  50.8443165
   6.1117315  73.5924292  65.0469494   6.4269012  72.6911974  65.1153374
   5.2267754  73.5103655  64.6914911  54.5972109  61.3329744  29.4973063
  55.0784779  60.7974005  30.1280022  53.9713717  60.7286167  29.0981627
  64.2457438  23.2732940   2.3780644  64.2158985  23.0758905   1.4419162
  65.0301647  22.8239441   2.6927090  27.0711398   6.0344118  37.9310012
  27.0205283   6.3910830  38.8178253  26.4669156   6.5739113  37.4210191
  74.5459557  55.4610300  66.5233231  74.9610758  55.5523300  67.3809767
  75.1288128  54.8788834  66.0358667  72.2255087  57.0936155  26.4659643
  72.7438259  57.3791218  27.2183323  71.7528009  57.8785324  26.1890411
  40.1400518  10.9134674  21.1491513  40.8674860  11.5347648  21.1165619
  39.4399905  11.3876510  21.5978169  20.4752469   5.7045221  52.3170424
  21.0509706   6.4642036  52.4045610  20.7834768   5.2601290  51.5272713
  31.7379284  62.5727081   5.1562363  31.0218096  61.9451141   5.2538699
  32.1035147  62.6578379   6.0367650  51.8920851  62.9888439   5.4156327
  51.5936041  62.1141958   5.6648993  52.1530962  63.3971405   6.2411010
  22.6067019   9.0882927  60.1114273  21.8937802   8.9697617  60.7390642
  23.4024930   8.9380759  60.6217098   2.6032731  17.5176346  33.3184648
   3.1444228  17.9389954  32.6507497   2.6583260  16.5835071  33.1169534
  67.3026991  70.7449579  14.4021118  67.0629215  69.8275328  14.2714679
  67.6881742  71.0128975  13.5679364  51.5645981  71.3102722  10.6686366
  52.1322012  72.0810270  10.6696963  52.1327066  70.5940676  10.9524250
   2.8694114  17.5032401   2.4266994   3.5585052  16.8536234   2.5659138
   2.0873675  17.1094716   2.8134632  81.2280846  35.9076309  38.1906819
  82.1187115  35.7913804  38.5215878  81.3416100  36.1001968  37.2599506
  13.7658203  31.1189175   9.6440887  14.4288158  31.2212467   8.9613038
  13.0619323  31.7138314   9.3855357  69.5103312  60.0998116   7.8926545
  68.6823940  60.0867081   7.4124712  70.0570393  59.4540358   7.4450827
   8.5684347  49.6992683  37.7118707   9.5131713  49.5823336  37.8120279
   8.3239144  50.2926207  38.4220648   6.5525687  62.5215435  58.3862400
   5.7066381  62.5639963  57.9403400   6.4119279  62.9858303  59.2114019
  30.2996683  38.2902908  11.4343309  29.7548795  38.9850259  11.0644937
  30.9990954  38.7539172  11.8948555   8.3530891  77.3269701   3.1863242
   7.9212630  77.4787235   4.0269959   7.7827585  77.7498055   2.5443238
   8.3180457  17.9447758  10.0421357   8.4768778  17.1808338  10.5965686
   7.3968190  17.8721917   9.7925282  45.8513498  45.5745649  64.8273134
  45.7448673  44.7824669  65.3540659  45.4514933  45.3576803  63.9851093
  31.8512487  13.7654674  50.2042341  30.9322143  13.5428858  50.0556898
  31.9876671  13.6086380  51.1385965  41.9918728  76.0711908  28.6293364
  42.6481199  75.7985592  27.9880571  41.9048500  75.3205729  29.2169023
   5.4645115   7.8698391  37.5552392   6.1524081   8.4947360  37.3260355
   5.7791591   7.4502975  38.3559966   2.7763638  40.6308556  38.5567784
   3.3607575  41.0032797  37.8964615   3.0436173  41.0480261  39.3757892
  52.6902580  65.6356001  59.5942545  52.8757524  64.7084141  59.7430706
  52.5201273  65.9889746  60.4674196  69.7920418  24.1526794  62.6378536
  69.5399809  25.0757647  62.6131153  70.2251196  24.0452719  63.4846973
  78.4195709  17.6549745  33.2760215  78.5552025  18.0552006  32.4171519
  78.9316130  18.1968820  33.8763404  79.8828220  10.2546000  65.0561857
  79.5932531  10.3304183  65.9653807  80.8386040  10.2598965  65.1079941
  24.0957904  21.9994688  15.8150792  23.6500287  21.9288301  14.9709594
  23.4220147  22.3178124  16.4158428  37.5337791  14.8854911  38.5418487
  38.0901098  15.1970792  37.8279591  37.9868937  14.1125643  38.8787484
  71.7120314  42.9766846  27.8283095  71.3517189  43.0957890  26.9495487
  71.3056660  43.6689949  28.3496571   4.0495881   8.1783587  15.4003441
   4.1383103   8.9281780  14.8120153   3.1067067   8.0965465  15.5435669
  52.0769024   5.0779998  38.1331825  52.1702862   6.0216326  38.0025339
  52.8286886   4.8354918  38.6737728  26.7615414  35.4991603  48.6995506
  26.7598486  36.1489439  49.4024086  27.5936365  35.0373316  48.8023281
  42.4364996  24.5657229  49.9949121  42.1568203  23.6834908  50.2392054
  42.6806211  24.9776936  50.8237171  15.9509873  36.3845539  53.8062286
  16.3381934  36.0084534  54.5967054  16.6586041  36.8948340  53.4123707
  22.9119468  51.5283680   1.2838557  23.3744383  51.6912127   2.1059355
  23.0688953  52.3145962   0.7609367  61.6353416  61.5342045  27.3478556
  62.2018242  60.8095169  27.0829844  61.6931868  62.1597433  26.6256475
  13.2784784  57.3533916  21.4796472  12.6995349  56.8856049  20.8777905
  13.7850118  57.9397154  20.9176111  20.0687695  73.4161854   2.7061722
  19.5493102  72.8734636   3.2993394  20.9653234  73.0988693   2.8144830
  76.7854929  70.8104610  23.9262486  76.6707754  71.7420387  23.7385416
  75.8977747  70.4526234  23.9142251  44.2926693  68.1622505  64.5717382
  45.1638222  68.5429287  64.4603491  44.1135311  67.7261877  63.7386751
   6.3957590   3.2074761  19.6259344   7.0458055   2.5300840  19.8125136
   6.5008426   3.3895516  18.6921048  73.4180260  67.4728203  49.8039865
  73.4964085  66.6634226  50.3089237  74.1821861  67.4704599  49.2275429
  20.5692339  74.6623707  19.9419522  21.0925651  73.9068747  19.6743894
  20.7295656  75.3174543  19.2626941  16.5439653  30.3012395  30.7781696
  16.9501054  31.1673594  30.7447076  16.6506386  29.9523306  29.8932314
  25.6635642  65.8161354  36.6558528  25.0788593  66.3058043  37.2342777
  25.2236772  65.8268261  35.8057833  61.8872070  49.4135666  60.2381420
  61.9750547  49.4848156  59.2876482  61.0020828  49.0746975  60.3721380
  60.9419441  60.6023073  47.6591301  60.9812927  59.8268366  47.0993710
  61.6937017  60.5132437  48.2449293  23.0239391   6.4181221  32.1654177
  22.2116494   6.1880183  31.7143464  23.1996274   5.6715584  32.7381396
  73.3945894   2.9293054  65.2770424  73.5927057   2.0207310  65.5039215
  73.9760065   3.1249276  64.5422506  14.8822868  30.6321025  38.0219722
  15.6468701  31.0543108  38.4136152  14.1379380  30.9845686  38.5097694
  63.7516499  28.1849551  42.0823288  64.6492004  28.5174465  42.0734549
  63.2055664  28.9704394  42.1145725  51.5780735  73.7830687  46.6822290
  50.9571743  73.5339403  45.9976482  51.5804863  74.7401428  46.6666412
  13.1040382  76.2723541  18.4468460  13.0486488  75.3827953  18.0977774
  13.8134050  76.2341642  19.0883851   5.6853962  18.5899532  24.2344594
   6.3254082  17.9755974  24.5938802   5.1572073  18.8536787  24.9879169
  10.4207909   4.2455891  47.4083519   9.5602429   3.9450720  47.1161556
  10.5889034   3.7486234  48.2089758   1.9955191  31.0723591  52.5601006
   1.5536395  31.9031405  52.7355385   1.2949878  30.4826927  52.2812128
  78.0434561  27.4671316  39.4947505  77.5352859  28.2426214  39.7326779
  78.3388805  27.6393843  38.6007237  81.1097908  11.0477507  39.6484089
  81.5858173  10.3685117  40.1261806  81.6547394  11.8296540  39.7372103
  79.6803665  28.6050296  23.1064582  79.1167116  29.0060854  23.7680316
  79.4538260  27.6753354  23.1305003  71.4103842  41.6717386  66.9643164
  72.0356131  42.2499609  66.5272999  71.6459179  41.7207861  67.8907871
  36.0466695  57.9766893  16.6286707  36.6171479  57.6960611  17.3442376
  35.8788657  57.1778345  16.1287689  10.7736778  16.1208236  45.1801109
  11.6406453  15.7175505  45.2245188  10.5235839  16.2523699  46.0946512
  47.5286484  57.9088879   8.0682665  46.8310595  58.2532644   8.6259496
  47.7553082  57.0659924   8.4611851  55.8246803  22.0292544  33.3222294
  54.9492645  22.0972657  33.7033439  56.0089111  21.0900116  33.3114552
  66.0928631   7.1319121  24.3334222  66.1770725   8.0006200  24.7264719
  65.1577950   6.9344127  24.3869781  45.8456813  77.5541460  51.9724417
  46.1702072  78.3011871  52.4752808  46.5703117  77.3238600  51.3909674
  27.0886350  14.7320819  29.9276590  26.8651295  14.2785621  29.1148877
  26.6664004  15.5874717  29.8485422  16.5374041  13.9148021  16.1509466
  17.2572827  13.2877827  16.2206125  16.0321462  13.7896037  16.9542348
  60.4765701  58.9092541  45.4958105  59.9643135  58.4963560  44.8005772
  61.3872862  58.7827110  45.2296925  36.2780857   0.5687897  59.5014381
  36.8693328   1.2592366  59.2015362  35.4026890   0.9426945  59.4008923
  19.7132814  14.2686939  57.3077440  19.7571433  13.3888316  57.6821089
  19.9399352  14.1482019  56.3856030  30.7853389   1.9415262  44.5522356
  30.4922152   2.3032409  43.7158918  31.7408204   1.9514675  44.4957781
   6.4659685   3.7824097  44.3733931   7.1819043   4.2216620  43.9143419
   6.8891317   3.3393291  45.1088142  61.3952827  32.8026772  57.9294252
  60.9010124  32.6468158  57.1246672  61.9439411  33.5613537  57.7303934
  17.1044433  21.0672903  45.7198954  17.5942326  21.8715954  45.8914471
  17.4762654  20.4265380  46.3260460  54.4014835  34.5586109  -0.1881246
  54.4453144  33.6260056  -0.3992140  54.4638348  34.5913005   0.7664831
   9.2433113  33.9977932  41.8206596   9.5548064  34.5521808  42.5361013
   8.3053029  34.1807556  41.7668343  46.3913393  54.1701221  21.8676066
  46.9057369  54.7009659  21.2594652  45.9200048  53.5533571  21.3075399
   2.4978678   1.1972476  43.0548477   1.8570563   1.8916915  43.2076216
   2.0348708   0.5593500  42.5117540  29.8182249  20.7262444  23.1771040
  29.5220804  21.5800929  22.8617120  29.6459842  20.7457232  24.1184783
  28.0970097  36.9457102  24.9842501  28.5109854  37.1134877  25.8308363
  27.2184110  36.6361618  25.2044225   8.7616313  38.7764764  27.3315287
   8.0746353  39.4427419  27.3504496   8.3218044  37.9878879  27.0138621
   5.9982687  11.7949069  44.9275446   5.2027369  12.0345306  45.4028749
   6.1255211  10.8671689  45.1258945  25.3763318  63.5923100  44.4751215
  25.9642506  63.1926632  43.8341379  25.5295587  64.5330286  44.3868065
  40.8375454  77.3585176  30.8885288  40.0778961  76.9820261  31.3328457
  41.1713028  76.6478491  30.3409958   8.5177273  26.8405175  48.7705803
   7.7500397  26.4883113  48.3202028   9.2568624  26.5877891  48.2173681
  31.5049458  16.9849765  33.0623794  31.2091470  16.4343965  32.3373985
  31.4675331  17.8767610  32.7166152  74.1742992  74.8444700  57.8101635
  73.6619568  75.5809879  58.1437445  73.8617277  74.0897751  58.3091354
  80.8314705  49.9524164  21.2775683  81.0486412  49.5390368  20.4419923
  81.5763760  50.5243540  21.4625931  76.5132856   2.2866780  24.8712993
  76.2427187   1.4133339  24.5879364  76.5313482   2.2335549  25.8268523
   3.2195380  11.8582082  54.9513149   3.1966782  11.3227558  54.1582203
   4.1077289  11.7464638  55.2902317  12.9721391  32.3169684  17.8646481
  12.5500512  31.4723682  17.7074134  12.3272216  32.9639339  17.5787318
  15.9856009  66.5417480  66.4927483  16.7662907  66.1827946  66.0709620
  15.8904827  67.4164581  66.1158276   3.7121430  53.7701273  44.8965120
   3.0151019  54.2406273  44.4393539   4.3514246  53.5665798  44.2137814
  13.2226825  16.4807165  33.6148119  13.1595981  17.4326932  33.5373926
  12.3848891  16.2152171  33.9940810  57.8039885  37.9872370  66.9542646
  57.0722389  38.4634399  66.5618277  57.8027153  37.1387386  66.5112257
  30.3123283  29.7273517  51.6470814  30.2858019  30.4836512  51.0609579
  30.7481885  29.0444303  51.1373043  72.1750641  51.0912037  60.9152889
  71.2835598  50.8753443  60.6416941  72.7335787  50.5352020  60.3720045
  60.3047895  57.9118252  12.8265047  60.5946255  57.0376015  12.5658214
  59.6048975  57.7531576  13.4599137  13.7900877  21.0109591  36.1051512
  14.6820271  21.0118175  36.4525366  13.5330760  21.9330049  36.1028075
  53.2937098   1.7318258  28.1411600  53.1828928   2.4088317  28.8087058
  52.9507160   2.1272394  27.3397636   7.2001684  12.9878068  17.5115812
   6.5364742  12.6115119  16.9335282   7.5896853  13.6965787  16.9995737
   2.0919432   2.8467560   0.5252577   1.1535297   2.9877353   0.3998102
   2.3982760   2.5102779  -0.3168673  61.8506384  20.8857656  65.0019264
  62.3969316  21.6574359  64.8525286  62.4729633  20.1874471  65.2051449
  26.9530988  15.2798414  55.0498438  26.6229343  16.1146951  54.7178173
  27.7906919  15.4988575  55.4581356  32.7285552  23.7970614  42.2935057
  32.2299504  23.4021807  43.0088377  32.0679259  24.0302396  41.6412544
   2.5913295  25.5297661  47.6300144   2.6519039  26.3900948  47.2148085
   2.1692568  25.6994557  48.4722090  18.4724665  32.6119208  64.3741083
  17.7363014  32.0481706  64.6117640  18.8390386  32.8932881  65.2123737
  28.0007100  24.3342042  36.9521856  28.1258225  23.5094857  37.4216676
  27.4739289  24.0976954  36.1887741  44.9401188  51.0335255  52.5647497
  44.4112682  50.2360678  52.5400305  45.4144669  51.0322189  51.7333508
  22.7377987  16.6997004  10.2130330  21.8125725  16.4575934  10.1733506
  23.0673289  16.5320325   9.3301231  12.9921508  33.0462146  13.0453694
  13.3653331  33.5549831  13.7651753  13.7420499  32.8291535  12.4915028
  51.6233873  69.1017199  20.7125258  51.5801525  69.0124989  21.6645789
  50.9378958  69.7350788  20.4999423  59.4101000  68.4090137   0.7822123
  59.1383123  67.8528118   1.5122823  58.9046764  68.0879402   0.0354226
   8.2569563  23.9381766  60.9360504   8.4908026  24.1402555  61.8419838
   8.1441396  24.7934604  60.5213261  29.4764662  39.5489693  20.1565599
  29.5255065  40.3376770  19.6164083  29.5217896  39.8718214  21.0565305
  28.0445790   1.4646897  50.4460764  27.2627497   1.6656503  50.9604597
  28.4586883   2.3148187  50.2976608  50.5046797  18.6910796  28.6428976
  50.4501343  18.1258631  29.4134712  51.3711786  18.5139489  28.2767892
  64.5764732  19.5647490  26.0713768  63.7125587  19.9015844  25.8338475
  64.4088745  18.9694631  26.8019772  41.0633087  29.4654512  45.9215403
  40.3062057  28.9110708  46.1104679  41.7890310  29.0451431  46.3829470
   7.9481983   4.8088020  59.8591614   7.6735556   4.1239375  59.2494392
   8.2602572   5.5183721  59.2975950  15.7495522  19.1496015  48.7491322
  16.5795755  19.5821738  48.5486984  15.9816539  18.2283318  48.8658476
  53.9836740  36.8908405  53.1043577  53.9472389  36.2784195  52.3696184
  53.5828733  37.6924253  52.7681255  22.8950214   6.8107224  28.3171487
  22.8663349   5.9269822  28.6837697  22.0882034   7.2239023  28.6246490
   7.7280605  37.1452117  42.9837847   7.9164201  38.0763364  42.8664875
   6.8276167  37.1219444  43.3076572  16.4445162   2.2083177   1.7648286
  16.7831945   1.6036780   1.1045714  16.3325202   3.0357763   1.2968531
  35.5991840  48.5278273  28.6277676  36.1837149  48.8742065  27.9535437
  35.3791499  49.2873096  29.1672182  66.3252783  26.7010188  39.4553280
  66.3254452  27.5241160  39.9439430  65.4040241  26.4435697  39.4201183
  30.4543161  24.7867298  40.9658146  30.5738235  25.6438923  41.3747406
  29.8688841  24.9533248  40.2270651  72.7038908  22.2965240  22.3083997
  72.2849083  21.8946266  23.0694246  72.2536421  23.1344604  22.2017765
  81.1008263  15.8835626  40.2431059  81.3289452  16.6979837  40.6913376
  81.8100643  15.2806652  40.4661226  80.2163792  34.0454006  60.2849293
  80.4434013  33.3333611  60.8830070  80.7228374  34.7938561  60.6004333
  40.3980827  23.9000273  56.1665249  40.3621626  23.6434960  55.2450418
  40.7998657  24.7687769  56.1578083  64.8538065  41.5315437  36.7746568
  65.6774569  41.0687923  36.6207409  64.9999475  42.0170498  37.5865436
   0.9861750  41.5062809  62.9521799   0.6555752  42.3990679  63.0515194
   0.8915271  41.3183403  62.0183992   8.9655513  24.6400976  32.8894567
   9.2439222  24.0249515  33.5679388   9.6947622  24.6591949  32.2696853
  21.4233208   8.7516761  46.1204481  22.0897007   8.4127373  46.7181873
  20.6890607   8.1443226  46.2110901   9.1610283  40.1031828  50.6961346
   9.9413782  39.5654678  50.5614233   9.4707966  40.8511400  51.2068558
   7.3615164   1.9393893  12.6560140   8.1047976   1.6736393  12.1145880
   7.6534927   2.7433684  13.0856633  56.9614840   4.5150459  39.6271205
  57.7194405   4.5226377  40.2116489  57.2161436   3.9316434  38.9122629
  22.9221344  27.4934411  34.8279619  23.8257337  27.5427055  34.5160127
  22.4776697  28.2193542  34.3900871  24.8010349  34.3903065  43.5008478
  24.6300936  33.5139465  43.1558800  25.5006623  34.7341013  42.9453659
  38.0506420  10.5728149  35.1916671  38.8065028  11.1020684  35.4462242
  38.2956576  10.1962471  34.3464470  53.0640030  18.1228733  28.1499410
  53.6665201  17.4394512  27.8564405  53.5697269  18.9328277  28.0832505
  32.0513630  54.5904016  38.8076973  32.0895362  53.6402130  38.9168501
  31.1257219  54.8072767  38.9190030  80.8917332  64.4598007  49.8254919
  80.7048702  64.1369343  48.9439774  81.0136700  65.4026794  49.7143793
  26.5589285  24.3220878  20.3651667  26.2618279  23.7238121  19.6795785
  25.8500791  24.9596620  20.4503727  20.2349591  24.1582656  42.7821636
  20.7620239  24.1333699  41.9835329  20.0271869  23.2411051  42.9607058
  50.3988123  12.6516473  57.1427584  49.4798422  12.8755510  56.9957876
  50.3770781  11.9961917  57.8399944  13.0433738  19.4673860  27.6011133
  12.3936856  19.1827738  28.2438660  13.0419588  20.4223919  27.6658750
  14.8400402  20.1909447  13.2989168  14.2282367  19.7045708  12.7463150
  14.4045269  21.0281420  13.4590995  38.5596991   7.7521616   5.2353519
  39.4028902   7.3355716   5.4134291  38.1333661   7.8052187   6.0907221
  25.6589913   1.9154696  29.4898629  24.8273063   1.4488465  29.4074225
  26.2371731   1.4878778  28.8581181   4.8187050  48.5808754  31.6462231
   4.3110463  47.7808905  31.5100670   5.7258153  48.3184719  31.4896107
  12.2068155  59.6821785  43.9459562  11.3263309  59.3339634  44.0864086
  12.7897930  59.0045214  44.2882252   4.3614274  19.3599463  31.8937755
   4.0460300  19.9947333  31.2505031   4.6053344  19.8893678  32.6530218
  35.9339547  23.2721376  38.3917999  35.3262782  23.0328727  39.0915942
  35.5145741  24.0123296  37.9530907  32.2508574  31.1704779  28.0649686
  31.9943285  30.9079742  27.1809340  33.1588006  30.8788109  28.1474447
   2.1555392  57.6727152  33.2392716   2.0865351  58.5583639  33.5957742
   1.6658489  57.7064848  32.4175096  49.0729046  35.4765105  61.9660997
  49.6559095  34.7199035  62.0283985  48.1959820  35.1142192  62.0925283
  71.2971592  69.8734379  11.3312733  72.0064354  69.7541904  10.6996596
  70.5420113  69.4462872  10.9268939  49.6730852  41.3941813   4.8430014
  49.8210144  41.7359638   5.7247788  49.3319035  40.5108166   4.9826401
   0.3563938  42.8459263  17.4061012   0.6293619  41.9404840  17.5540709
  -0.5188982  42.7730656  17.0255923  43.9797889  77.7637200  55.1037502
  44.9197017  77.6313155  54.9802160  43.6130916  77.7158603  54.2208719
  19.5125437  43.5101748  23.7614012  19.4866300  42.6612282  23.3199835
  20.3428626  43.8983440  23.4854913   6.3352638  48.4017897  42.0177937
   7.2825515  48.5163498  41.9419384   6.1179119  48.7660265  42.8758860
  12.1835160  39.9625230  19.8247743  11.6502464  39.8131132  20.6054997
  13.0620778  40.1337004  20.1639795  62.3209381  53.4111691  20.9610152
  61.3955736  53.1948662  20.8463407  62.7813768  52.8136921  20.3717375
  15.2926517  27.4106717   7.8036153  15.4525590  26.9107056   8.6040497
  14.3423533  27.3859215   7.6915818  80.5225849  67.1991110  20.8196449
  79.6060991  67.0153236  20.6134748  80.5901814  67.0512629  21.7629361
  53.6757326  58.4702682  40.3719711  53.6524439  58.5670185  39.4199562
  53.6168385  57.5261545  40.5182791   2.3128514  18.7588835  44.4576359
   2.0724654  18.6834800  43.5341835   1.9432373  19.5975995  44.7336340
  63.1208992  30.7614875  17.7116358  62.7053452  29.9432039  17.9835939
  62.4310589  31.4197850  17.7952945   4.3080369  68.7564230  22.8845739
   4.1031927  69.4199133  23.5434008   5.1237524  68.3594704  23.1899762
  61.7828655  72.0814180  51.9678259  61.3786840  71.6456842  51.2174892
  61.0486650  72.3008013  52.5414562  32.3699546   5.6271458  10.6616938
  33.2179332   5.8930260  11.0173225  32.4280119   4.6743301  10.5909586
  59.0463686  64.5900774  41.7857265  59.0086603  63.6374569  41.7001486
  59.9054909  64.7621059  42.1711445  19.5702147  23.2259464  23.1041622
  20.3019619  23.8218021  23.2645822  19.8163199  22.7529812  22.3092008
  76.1411524  36.3313317  46.5944815  76.5849018  36.3545346  45.7466745
  76.3699007  37.1640325  47.0074177  76.8699408   6.2420821  54.0109444
  76.4085007   5.4038370  54.0364742  76.4961100   6.6984099  53.2571220
  13.5433900  47.1202755  24.1801357  14.0586579  47.4713564  24.9064112
  13.3410203  46.2221622  24.4421887  13.4580970  15.7512379  22.3196030
  13.9868224  14.9542093  22.3573565  13.9494359  16.3375700  21.7442489
  22.6948524   9.0803009  26.6180301  22.4456310   9.7102070  27.2942972
  22.8557825   8.2667845  27.0960712  25.4556847   1.4948681  62.5657368
  25.2651691   1.4905144  61.6276979  26.3255119   1.1014286  62.6353073
   6.6409701  35.4872298  45.9361553   7.3060137  35.8918452  46.4931393
   5.8329791  35.9534979  46.1505747  10.6327343  33.7603593  39.1502929
  10.9029007  34.6662045  38.9996696  10.2600288  33.7650251  40.0319386
  22.7681971  43.5600185  50.0237513  22.4416995  42.7155399  49.7131252
  23.7168789  43.5074043  49.9076986  39.2469954  67.4482632   2.7664191
  38.7175035  68.2445145   2.7233255  38.7444472  66.8564510   3.3262771
  17.8040516  20.9956241  27.3736238  17.7420390  20.1226950  26.9858360
  17.1879113  20.9767199  28.1059122  42.6657867  65.9928656   5.5813801
  42.3577499  66.6983938   5.0125462  43.3038568  65.5174971   5.0492853
  21.2528825  22.1804404  16.6369331  21.1408758  23.0935621  16.3725543
  20.5567575  22.0290828  17.2762537   7.6400197  24.9901414  65.5190802
   8.2250255  25.3058553  66.2077904   6.7797577  24.9471807  65.9366131
  31.0653687  46.8290234  27.0921540  31.6138363  46.7247915  27.8696823
  31.3642502  47.6476383  26.6962075  15.5106926  53.6865902  24.9342155
  15.0225210  54.3668842  24.4704032  15.0562692  53.5944223  25.7716131
   4.2752653  36.9285512  46.4950275   4.1342407  37.1659017  47.4115467
   3.4729910  36.4733577  46.2393236   8.8041139  25.3203464  63.1582403
   8.9021069  26.2715912  63.2002306   8.3364683  25.0920463  63.9616156
  20.3147936  27.0406318  35.8219576  21.1585951  27.2189879  35.4067230
  20.5383348  26.5783858  36.6297889   3.8509768  49.3712854  28.8651586
   4.4202581  49.1096163  28.1415009   3.4377241  48.5567236  29.1514111
  40.4637623  37.0290089  63.1607914  40.9087133  37.8310990  62.8871107
  40.7603407  36.8852949  64.0594673  78.4808683  15.9973693  49.3785954
  78.1681108  15.4128754  50.0690889  77.7043486  16.4888942  49.1109180
  78.9075232  31.6211319  44.8970604  78.7523317  30.7444453  44.5455360
  79.2378044  31.4691353  45.7825184  64.3156815   6.8734121  20.6068444
  63.5299015   6.7127246  21.1292982  65.0400782   6.6252416  21.1812067
  61.4492698  26.0279658   0.0900899  61.3423868  25.0865033  -0.0457610
  61.8375583  26.1015990   0.9618960  20.0353742  48.7844276  55.5917835
  20.3767180  48.0946255  56.1608982  19.4587135  48.3267307  54.9800587
  22.7239633  70.6028795  39.6141958  23.3901858  70.5872297  38.9270759
  21.8937111  70.5224657  39.1446805  28.6174989   3.0362514  61.2960529
  27.6890302   2.9534984  61.0785055  28.6769271   3.8577250  61.7837858
  10.2936411  40.9020472   4.8336154   9.5749587  40.2884340   4.9859512
  11.0419250  40.3456163   4.6175426  75.5396366  32.3956752  14.0623224
  74.8937464  31.8008733  13.6811793  75.2000046  33.2705665  13.8740420
  30.0934076  48.6969376  35.8790731  30.0173211  47.9264784  36.4419556
  29.4714999  48.5372734  35.1691651   3.0517474  38.3007455  51.4462566
   3.9493439  38.6288047  51.3921309   2.7357846  38.3173633  50.5428600
  23.6228824  38.0941486  11.5402293  23.8314891  38.3864260  10.6529367
  23.0182743  37.3626280  11.4155006  69.3584776  66.9929409  16.0621452
  69.8378134  67.2421932  16.8522978  68.4377432  67.0180655  16.3226211
  14.9711442  75.5912542   2.9355061  14.9848032  76.0329676   3.7845862
  14.0418482  75.5205154   2.7172446  30.2993512  14.4915092  22.6028919
  29.9879670  14.8813832  21.7860246  29.8048258  13.6758518  22.6827645
   0.4139104  47.7940083  17.0983469   0.0430074  48.0200005  16.2453580
   1.3280263  47.5791454  16.9127095  62.0734978  63.8139105   1.2788506
  62.2277880  64.0230227   2.2000988  62.1585369  62.8616524   1.2319015
  72.8384209  11.1525011  51.7011452  72.4229240  11.7206836  52.3498106
  72.1075010  10.7459354  51.2356472  82.2101593  40.7840586  32.4940324
  81.7814827  41.0935640  33.2919550  81.4949322  40.6625748  31.8695927
  23.9608836  11.7468762  16.9827914  24.6524143  12.2358143  17.4288332
  23.2804465  12.3976517  16.8103707  39.2844725  28.0158877  51.9833946
  39.0039086  27.1060848  51.8845272  38.4707332  28.5060501  52.1008730
   6.2831527  32.6664162  38.3220077   6.3995832  33.2109118  39.1005969
   6.4102274  33.2676315  37.5880980  13.7553656  35.0673699  29.2272186
  14.0426540  34.1546416  29.2521858  12.8411424  35.0385118  29.5093441
  74.5062542  62.5043869  58.7591028  74.0384102  62.0301771  59.4464684
  73.8972044  62.5185537  58.0208015  68.2889938   0.0668059  34.6981406
  68.0222130   0.9855841  34.6680379  67.4705839  -0.4166682  34.8107982
  28.1207061  43.1168222  27.3551011  27.6789427  42.3106098  27.0884657
  29.0205312  42.8472567  27.5391722   1.6011053  20.5088305  55.4653502
   1.4905299  20.4826403  54.5149183   1.0534509  21.2404132  55.7501221
  12.5542355  77.1815968  38.4164596  12.7750349  76.4744186  37.8103423
  13.2588637  77.1705866  39.0642333  62.4559879  22.9184103   8.8715214
  62.3063183  22.4659514   8.0413932  61.6612673  22.7557397   9.3796456
  40.7164812  17.1205580   9.0626162  40.5523300  17.6225090   8.2642859
  39.8603725  16.7663181   9.3030930  16.5602708  41.8096733  39.3538833
  15.8822882  41.9070625  38.6852384  16.2325525  41.1176252  39.9282503
  47.2768211  75.8122444  38.6971474  47.0948362  74.9724865  38.2753444
  46.4751148  76.3206148  38.5744596   9.9253869  30.4850364  65.5584526
  10.4782426  30.2514195  66.3041067  10.5148566  30.4560304  64.8048496
  28.2711244  21.9239855  38.0580306  28.0917645  21.1629057  38.6101317
  28.8629580  21.5949631  37.3814869  36.9918895   9.1843009  48.1275082
  37.7312565   9.1303909  47.5219822  37.3950386   9.2259401  48.9946699
  37.1477890   4.5594206  25.0298953  36.9984102   3.9612910  25.7621241
  36.3019729   4.6086624  24.5844674  20.4367518  52.1050406  36.0724854
  21.1509991  52.4124384  36.6306901  19.6418583  52.4026299  36.5149975
  58.6732483  72.0429754   6.9212431  58.6835957  71.4348841   6.1820906
  57.8959751  71.7970610   7.4228430  13.6517262  15.3758705  44.3911695
  13.9298749  16.2268245  44.7299051  14.4374967  14.8312056  44.4374084
   5.3233045   6.6208124  40.4493713   4.7631600   7.2810537  40.8574820
   6.0584354   6.5231633  41.0545826  67.5312138  31.8527102  30.8353806
  67.3386526  30.9406018  31.0526657  67.9536057  32.2018504  31.6201854
  73.0146599  18.4375811  25.6628203  72.2763681  19.0424240  25.7357574
  73.5367489  18.6011004  26.4482594  27.2344899  47.7833176  42.4583149
  27.9261351  47.7727222  41.7966938  27.6966286  47.9172516  43.2857943
  31.4638352   3.2769459  47.0973921  31.0152578   2.5262666  46.7081738
  30.8496046   3.6102429  47.7515078  29.2628741  50.5947685  27.3050523
  28.8393664  49.8877859  26.8181753  28.7854743  51.3830948  27.0464826
  20.0000763  32.5224733  28.5825372  19.6026695  33.3705592  28.3849192
  19.6441770  31.9308805  27.9195261   1.1574793  38.5269594  32.0687723
   0.6687871  37.7661538  32.3827600   0.6070015  39.2760563  32.2969389
  31.8469167  22.3486209  13.4329307  32.6125455  22.6044106  12.9185236
  31.1104202  22.7743721  12.9941356  70.7104397   1.0104012   3.0503052
  69.9087334   1.0046074   3.5732496  70.7825184   0.1176905   2.7125123
  13.7308204  45.1847410  33.0352879  14.1368508  46.0382175  32.8838110
  13.0586374  45.3530979  33.6956334  73.3175421  35.4945803  16.9167340
  72.7421999  36.2413287  17.0828140  73.3884525  35.4543114  15.9630132
  24.7377539  62.9001379  38.4555387  25.6276846  63.2505226  38.4940958
  24.3198347  63.3855581  37.7442455  19.8565173  66.6478014  57.5909853
  19.8911583  67.1219730  56.7602062  19.9094939  67.3311377  58.2591724
  31.0762691  28.5700011  56.5627480  30.3059745  29.1106963  56.7374611
  31.8113971  29.1820574  56.5974855  13.1729269  20.1612043  48.4071875
  14.0247774  19.8341489  48.6963511  13.3809090  20.8064032  47.7313948
   0.1342286  14.9921918  46.6114759   0.6455464  14.1832924  46.6330910
   0.4984007  15.5247080  47.3186111   9.2077529  46.9466829  65.7367420
   9.0671045  47.2234583  66.6421938   8.4200233  47.2321749  65.2739143
  14.0403914  72.1739912  40.1788139  14.9461722  72.0919514  39.8803782
  14.0059149  73.0292416  40.6072807   0.4116943  76.6822100  66.1642694
   0.3771171  77.4106932  66.7842293   1.3240704  76.6561651  65.8759594
  30.2355909  31.1445642  19.1655219  30.8232093  30.7008100  18.5539520
  30.7094812  31.9358230  19.4215906  29.5996515  34.1744425  -0.1805343
  29.4953958  34.9615672   0.3540669  30.4413978  33.8093855   0.0922738
  10.8650243   9.9199939   4.0443766  10.2058387   9.5563978   3.4531885
  10.3965616  10.0625491   4.8668438   2.9666522  19.6269310  14.8541009
   2.8871924  19.9770081  15.7414365   2.0632580  19.4900739  14.5688272
   8.7254840  17.3389554  67.5683880   9.1329008  17.4678326  66.7118645
   7.7885944  17.4507511  67.4072313   8.9436173  25.7288837  38.1418276
   8.2784468  26.3094687  38.5115600   8.7046456  24.8580527  38.4592819
  31.2958360   8.3863485  37.3157454  31.8516922   8.6100006  36.5692663
  31.1504531   9.2194051  37.7642012  31.8824553  11.9317687  35.0859356
  32.6085806  11.3644207  35.3449464  32.1984053  12.8187871  35.2579999
  23.0664730  29.4343543  62.8272343  23.9725065  29.2004037  62.6257277
  22.5410533  28.8048816  62.3333406  28.1410003  17.5205123  36.3763213
  27.7859688  17.5702608  37.2638512  28.3639836  16.5970743  36.2589645
  22.0710588  18.5867262  13.9722896  21.5316105  18.8925326  14.7014737
  21.6260791  18.9150560  13.1909931  12.3245215  56.3658190  42.4985361
  11.4611340  56.7409754  42.6718807  12.8597891  57.1117163  42.2276974
  36.0363197   4.6916386  52.4263287  35.7175016   4.3852854  53.2752895
  35.7299709   4.0325826  51.8034124  31.9954944  33.2390356  18.0702341
  32.9073334  33.0364561  18.2793820  31.8964481  34.1628003  18.3006299
  16.7785835   9.5857739  22.5219393  16.0497177  10.1968706  22.6294041
  17.4413204  10.0849986  22.0446682  71.6467285  27.6271296  21.8352270
  72.5050497  27.2916651  22.0940304  71.0300016  26.9533348  22.1213746
  64.5320940  47.7612209  52.0359325  64.3202686  46.8313980  51.9534922
  64.0342236  48.0535126  52.7994204  33.2185698  76.2659359  67.5196743
  32.2619033  76.2378407  67.5044298  33.4592032  76.6815901  66.6916895
  10.3168893  31.2015367  50.5254364   9.8124349  31.2415600  51.3379383
  11.2306130  31.2001729  50.8106375  32.9293108  21.0105515  46.0048628
  32.3608088  20.3553271  46.4094830  33.7352324  20.9795451  46.5203810
  29.5553589  25.4372931  57.7830839  30.4436159  25.1063156  57.6500893
  29.2376924  25.6317568  56.9013262  73.0828857  24.4005489   8.0172443
  72.8160477  23.5777903   8.4272420  72.2622633  24.8686767   7.8633976
  19.5756257   8.3991939  19.2504847  20.0336671   9.1884565  18.9615285
  20.0913382   8.0806476  19.9912953  19.0723050  51.1513233  42.6592207
  19.2589402  51.6675234  41.8750429  19.9309146  50.8538723  42.9601288
  11.9482374  46.9439077  40.4608822  12.7748430  46.9521189  39.9782991
  11.3379693  46.4860010  39.8828435  77.2307110  17.4945140  18.9178181
  76.8409061  18.3581102  18.7818635  78.1655455  17.6683247  19.0278447
  10.3186584  35.0629306   7.2516125   9.6847093  35.7786226   7.2977209
  10.8536649  35.2659321   6.4842856  52.3890877  73.8314772  15.9769893
  52.2499037  73.2210350  15.2529573  51.6248608  74.4074154  15.9549630
  45.9436464  46.1765337   6.7268705  46.6183186  46.8110228   6.9686800
  45.2503109  46.7037344   6.3299119  13.0128002   8.0018181  16.3018179
  12.7344930   7.5237799  17.0830071  13.0374634   8.9180386  16.5777969
  42.0626163  65.9440994   9.2643511  42.4735641  66.7038107   8.8518059
  42.6699352  65.2232695   9.0976149   3.5292763  43.8113737  42.8817558
   4.4624096  43.9797211  42.7507830   3.1631422  44.6634197  43.1188107
   8.4847420  41.3026381  36.2346172   7.8719133  42.0346069  36.1646867
   9.2966962  41.6993666  36.5501618  35.9334970  25.7658958  14.6274173
  35.2047300  26.3768387  14.7364128  36.5756464  26.2493587  14.1076660
   4.6531549  26.5646315   9.9326605   5.3275412  26.6751909  10.6028938
   4.2048588  27.4098158   9.9022537   2.6526463   1.0650724   9.7077101
   2.8987321   1.1388873  10.6297863   1.7277208   1.3106021   9.6862656
  72.8940487  34.1028619  25.8907866  72.3077345  33.5129142  26.3645267
  72.5900221  34.0654016  24.9839258  30.4639578  34.3706226  20.2971435
  30.4384279  35.3274536  20.3044581  30.6917071  34.1302276  21.1952376
  36.8551397  23.5425830  42.2620010  36.7248678  24.4392133  41.9532681
  36.2416005  23.4486532  42.9906845  15.5260968  50.7248545  53.8813353
  16.4763570  50.8246136  53.9386511  15.2487469  50.5517578  54.7809744
  16.8506861  69.0843534  54.6855688  16.4219260  68.9111567  55.5236578
  16.2708914  68.6901045  54.0339231  66.8189669  18.5438979   3.7118989
  67.1547413  19.1176772   4.4005674  66.9576788  17.6587617   4.0488335
  56.4099693  14.1809261  60.0114870  57.3154497  13.8708651  60.0255823
  55.8993626  13.4169924  59.7433090  23.6356258  31.0389519  47.2154379
  23.5199046  30.1972222  46.7746067  24.5321703  31.0129738  47.5497532
  36.5420151  64.3442297  19.1247416  37.2371936  63.7962341  19.4889665
  36.3506293  63.9532089  18.2722723  38.6351538  13.6643004  44.4134665
  38.8340664  14.3724370  45.0260115  39.3394613  13.7024522  43.7663746
   2.2542799  40.6868505  14.9325812   1.5493512  41.1621475  14.4928086
   1.9011647  39.8078227  15.0698853  28.7927222  32.7353096  42.6259279
  28.2612181  33.5047412  42.4217081  29.2549634  32.5402856  41.8107414
  14.6615553  49.0913391  10.2565515  14.5194221  49.0457058   9.3110639
  14.4193184  49.9868917  10.4922199   4.0957955  36.0880876  38.1726837
   3.8709307  36.3172936  39.0744209   4.9914795  36.4066315  38.0608273
  28.9609361  50.8047724  39.7034931  28.1723619  50.3017282  39.5002079
  28.6699462  51.7166710  39.7035027  11.9147897  25.6857085  43.4758949
  12.3879910  26.5088534  43.3544731  12.5871801  25.0606108  43.7467766
  17.2827375  54.3760872  28.6386323  17.0027566  53.6888027  28.0340838
  17.5296926  55.1072025  28.0723119  35.3130984  62.0079660  39.0599585
  35.2994704  61.9754601  40.0165081  35.8700371  61.2730217  38.8032436
  17.8032744  23.6337972  29.3789482  17.8383303  22.9005527  29.9932408
  17.6945913  24.4061422  29.9338388   3.9279100  46.8250132  26.6835475
   4.8466137  46.7231941  26.4348531   3.6684108  47.6641989  26.3032126
  24.4822955  29.4228554  59.5399141  24.4918013  28.5048461  59.8108435
  23.8543868  29.4530559  58.8180733  17.3358989  47.7828598  41.5327358
  17.6849008  46.9539070  41.2052202  16.4872754  47.8733969  41.0992908
  37.7744889  54.3339968  29.0991354  37.8231096  53.7171221  29.8294330
  36.9377255  54.7828150  29.2200279  34.4778156  48.4322882  21.5081668
  34.9928045  47.7845526  21.9892693  34.8831463  48.4648800  20.6416368
  79.3020773  38.7639165  53.7130499  80.0488281  38.2448959  54.0117502
  78.5510206  38.1775546  53.8042974  22.7956820  53.0091429  37.5152516
  23.7192416  52.7730656  37.6020598  22.7543187  53.9225721  37.7983832
  37.6968527  53.2141018  11.0232520  37.5281739  54.1563177  11.0199511
  37.3026204  52.8973532  10.2105498  18.4396231  18.0465543  43.3929825
  18.2102525  18.9563525  43.2035398  18.2191038  17.5720704  42.5914383
  42.1928549  74.3186665  52.9226923  42.1824980  74.3296146  51.9656134
  43.0201960  74.7385788  53.1580877   2.8098536  23.1941366  42.5386953
   2.7744737  24.1439056  42.4250269   1.8941778  22.9289794  42.6250696
  40.4997492  68.2182932  40.8656645  39.7908711  68.8614941  40.8612680
  40.3708315  67.7253151  41.6759634  12.6964366  10.5199873  58.6026907
  12.3813951  11.2733364  59.1021395  12.4257874  10.6994414  57.7022600
   7.2056121  41.1197424  27.4189568   6.3043439  40.8008194  27.4662352
   7.2126073  41.7067528  26.6629148  31.3502550  43.0471802  17.4213827
  32.1998596  42.6186132  17.5249910  31.5597558  43.9775324  17.3390031
   0.7373372  16.5196157  10.9862673   0.1145312  17.1334517  10.5969751
   0.7561440  16.7537069  11.9142115  13.5573351  54.4777727  43.7764025
  13.8965845  54.9758959  44.5200539  12.9331064  55.0695753  43.3564711
   3.4761938  33.9438224  47.0605707   3.8690776  33.2641101  46.5129709
   3.2518488  33.4948134  47.8756094  73.7874413  12.3918653  21.6080594
  74.2395973  12.1398628  22.4132180  73.3116722  13.1893814  21.8401098
  11.1556137  68.0917025  47.8487968  11.0531759  68.3938551  48.7512636
  10.5972350  68.6758852  47.3357916  20.3672552  15.7188094  61.7836475
  20.9891725  14.9950290  61.8584251  20.8972597  16.5047145  61.9166279
   0.2839916  41.5093708  37.6812220   0.0416915  41.9322538  38.5050511
   1.0977829  41.0462713  37.8800011  45.2415609  27.9627562  54.5296431
  45.6668282  27.1253347  54.7143126  45.4622650  28.1472826  53.6166954
   8.4625280  31.8726087  55.7198477   8.1531984  31.7910147  56.6220045
   8.8598251  31.0237908  55.5251789  23.2987142  15.6395864  53.5224199
  23.7699628  15.9782422  54.2836475  22.3791552  15.8334076  53.7042856
  21.5357065  63.2845926  23.5322595  21.2929440  63.4321356  24.4463325
  22.2438359  62.6418638  23.5732603  66.0710955   1.5788697   3.4360480
  65.2849865   1.7734428   2.9257482  65.9037161   1.9714502   4.2928427
  20.9700537  14.6439528  28.3345342  21.0711217  13.8203549  27.8573489
  20.6275678  15.2571058  27.6841664  11.4017153  68.0931616  23.2546020
  12.2017026  68.4653139  23.6257529  10.9936881  68.8213921  22.7861714
  42.9886961  24.8544788  52.6150513  42.7262878  25.7535028  52.8128576
  43.2865667  24.5019054  53.4536219   5.1875776  27.9786587  29.2496085
   4.3790272  28.1200695  29.7420311   4.8962396  27.6412082  28.4025669
  43.5586405  44.2018604   2.3635751  44.0997362  43.6626959   1.7867303
  44.0745401  44.9960613   2.5026160  16.9711292  16.1973858  48.7820721
  16.3874829  15.6202877  49.2745590  16.7427468  16.0433209  47.8653717
  12.0214641  60.5018520  22.8313422  12.8989553  60.3078318  23.1608844
  11.5745032  60.9159279  23.5695815  34.9528790  39.5264816  31.5586853
  34.4511342  39.6021366  32.3703265  35.5624008  40.2640867  31.5842605
  37.1250653  53.0529118  31.6502023  37.6212859  52.5288582  32.2789860
  36.4275622  52.4700308  31.3502502   7.2464961  57.7318382  13.5160518
   6.5434331  58.1757498  13.0418384   7.1850765  56.8186665  13.2357478
  22.8167510  44.6441793  24.6345472  22.0509291  45.0950050  24.9902225
  23.4863448  45.3250170  24.5687222  31.3548231  38.0892682  30.2745771
  31.7710733  37.2357655  30.1541710  31.7971277  38.6619830  29.6480036
  24.6045637  11.2063193  24.6683478  25.1807380  10.9085774  25.3723383
  24.2456198  10.4009426  24.2958403  43.8723087  63.1293964  16.3470018
  43.3179522  62.5945663  16.9152224  44.5875025  62.5463438  16.0924804
  19.6640813  45.0870037  49.4310093  19.7094345  44.3333626  48.8426256
  19.2143035  45.7614756  48.9220715  72.6522303  45.9603262  60.1913548
  72.1330738  45.4195786  59.5961189  73.1815720  45.3334284  60.6843376
  25.3408647  32.5376582  20.7927108  24.5175290  32.5372171  21.2809205
  25.5649996  33.4638119  20.7019448  23.1052423  64.1712809  36.2873030
  22.5259852  64.9286556  36.3714075  23.5536122  64.3042421  35.4521275
  17.0610607  29.5938373  33.4030914  16.5644121  30.0615549  34.0745163
  16.7010593  29.9106264  32.5746727  33.2439995  26.8195415  18.0330145
  33.6633801  25.9609151  18.0888212  33.5434055  27.1784997  17.1977079
  24.4275665  28.6582899  25.0340009  24.7541213  27.8970408  25.5136824
  24.9298096  28.6614490  24.2191553  22.7250314  32.2598124  29.1744566
  22.8540802  33.1454635  29.5138669  21.8428063  32.2717476  28.8032818
  53.3830929  49.4011974   7.6473081  53.9286470  48.9765787   8.3093500
  53.8141727  50.2400494   7.4838036  28.7241673  21.9136405  66.5389538
  28.8949037  22.8493524  66.4315987  28.6067724  21.7982316  67.4818897
  10.8188379  17.6926184  34.9371076   9.9112052  17.8025186  34.6536350
  10.7516038  17.3380017  35.8236527   1.1541685  44.0920877  40.8541775
   2.0533091  44.4136000  40.9205723   0.6116604  44.8547935  41.0546637
  29.2638850  13.1618202  49.9680519  28.7937069  12.3282349  49.9507141
  28.5743260  13.8253236  49.9905014  72.0344257  46.6341448   5.9185052
  71.8704653  47.4741316   5.4898185  72.9878378  46.5491486   5.9220976
  25.2476692  46.0799408  36.6691208  24.3420696  45.7745075  36.6159201
  25.5494499  45.7860613  37.5286531  82.1052456   3.5125500  18.0381429
  81.6087055   3.7036052  18.8338673  81.8425560   4.1963002  17.4219358
  19.3696487  44.6762323  10.5550086  18.4477580  44.4189024  10.5436826
  19.7922838  44.0802813   9.9365819  59.2705297  33.7506175  50.4782963
  58.8051462  32.9868674  50.1372099  60.1780987  33.6206102  50.2032518
   1.0436732  62.3603296  43.6649179   1.4454469  62.3018360  44.5317459
   1.7796543  62.4980640  43.0686045  81.8894386  27.0835423  16.5490603
  82.3892117  27.7332926  16.0548091  81.3899422  27.5975251  17.1835291
  17.5179744  10.3364241  42.3453712  17.8162086   9.5583409  41.8743372
  17.4816990  10.0623870  43.2617903  23.0973697   8.0569208  16.8944383
  22.2020388   8.1155592  17.2278690  23.0981445   8.6082625  16.1119723
  77.7197790  33.1088114   3.0089647  78.1779480  33.9477921   2.9597008
  78.4172821  32.4535465   2.9901919  16.7690158  61.6197872  20.2925253
  16.3520896  62.3087358  20.8099723  17.4210513  61.2395144  20.8811474
   5.1097935  29.5440769  48.4876204   6.0144216  29.8520994  48.4328318
   4.9547017  29.4218636  49.4242334   5.1112735  34.4866300  18.0933630
   5.0436431  35.3649712  17.7189624   4.2204028  34.1390586  18.0512273
  14.4668591  42.6218128  42.7550507  14.5735824  43.3168888  42.1056557
  13.9904010  43.0368710  43.4740400  81.5026951  38.6157775  14.8168993
  81.3853073  38.2776499  13.9291370  82.4486351  38.5880613  14.9606216
  31.2601638  43.6072636  36.4868617  31.2004447  44.3669462  37.0661330
  31.3715506  43.9808464  35.6126404  26.1843467  60.0765467  28.1284428
  25.6579423  59.2771530  28.1184697  26.9376206  59.8604488  28.6780930
  30.8510065  73.0947304  49.2075396  29.9209857  73.2566214  49.3659258
  31.1848164  73.9260769  48.8703966  25.6660008  41.5458679  35.4695082
  25.9245038  41.1341381  36.2940598  25.8332729  40.8773279  34.8051977
  76.8659449  52.6118851  15.0885522  76.8577290  51.7866898  15.5735469
  75.9452677  52.7816820  14.8891568  29.0512085  20.7999682  13.3249474
  29.9243140  20.9681964  13.6793745  28.4553695  21.0225821  14.0402460
   2.5976375  20.8871770  12.3955345   2.9261222  20.5441570  11.5644705
   3.2360539  20.5929089  13.0451977   8.1220049  60.8929729  38.1599832
   7.2917819  61.1700487  38.5475254   8.7581563  61.5372229  38.4706044
  30.1313353  65.7250118  41.2117195  29.8472619  64.9663734  41.7216253
  30.6206560  65.3513622  40.4787922  33.4871244  36.9651723  33.3145618
  33.1072259  36.6138196  34.1198325  33.6460352  37.8890681  33.5079408
  75.8980656  37.8404975  67.2213459  75.2306843  37.7175784  66.5462732
  76.7293692  37.7651572  66.7528439  34.3275023  24.6767759  10.3611791
  34.6804643  25.4809260   9.9804002  33.4828544  24.9365902  10.7290089
  55.1046610  64.9852753  26.1176872  55.9827709  65.0021124  25.7370615
  55.2499104  65.0783014  27.0592165  20.2433038  52.6556444  46.2711239
  20.5229092  52.2026348  45.4756117  20.1716161  53.5740614  46.0111189
  73.8811350  53.0915689  37.3188615  72.9245281  53.1252384  37.3195720
  74.0881014  52.1651506  37.1958208   7.0458025  13.7236917  54.2347193
   6.9297951  14.5530367  53.7710810   7.9532802  13.4755433  54.0582609
  31.3873100  51.5057039  38.8937283  30.6525111  51.0116768  39.2573810
  31.2772632  51.4354372  37.9454756  14.3432117  29.0108442   3.6840954
  15.0096798  28.4411788   4.0681964  14.7575343  29.3685675   2.8988543
  61.4100552   6.9693965   8.0689955  60.5948210   6.7075181   7.6411575
  61.8516731   7.5226635   7.4247110  56.2252760  64.0005064   2.1351613
  55.5869627  63.9039183   2.8418818  57.0730782  64.0196800   2.5791210
  26.1462545  35.2097392  20.3268218  25.2715969  35.5928063  20.3936195
  26.7115402  35.9438729  20.0865412  19.6457815  27.6048446  32.7895689
  20.4010773  28.1924295  32.8120303  18.8874841  28.1884384  32.8147006
  36.6459632  60.1903915  22.0951104  36.5907764  60.9926939  21.5759826
  35.8419347  59.7145796  21.8868494  70.9942293  57.5456333  41.2729645
  71.4992094  58.3504152  41.3893938  70.1299238  57.8440523  40.9898472
  41.7490864  60.3579664  65.1679850  40.8262491  60.2593851  65.4022789
  41.7641020  61.0966682  64.5594358  11.4198291  56.7393446  19.7455800
  11.1186993  57.6334953  19.9069893  11.3240075  56.6212702  18.8005352
  18.5368657  62.5588512  27.7051616  18.1235230  63.4161139  27.8075528
  19.3040395  62.7266884  27.1578884  12.7065802  51.7961454  19.8780870
  13.0907094  51.4678240  19.0651429  11.9771767  52.3466015  19.5931304
  44.7532082  56.6884708  17.0214403  45.5189371  56.5789557  16.4576161
  44.3764019  57.5266027  16.7535222  33.2251763   9.4428539  35.3753686
  32.7489543   9.2421710  34.5696568  33.8422155   8.7179971  35.4757500
  58.2550764  52.2197390  59.0907955  58.9436436  52.8763342  58.9859772
  57.6359510  52.4072123  58.3852673  28.0215502  65.0992870  23.3010864
  27.7675581  65.0973940  22.3782015  28.8819790  64.6800756  23.3135605
  35.1011395  58.5622835  66.8177795  35.0397611  58.7703133  67.7500820
  35.9059858  58.9923954  66.5288830  19.5071125  28.2451868  46.4264727
  18.7645555  28.8488102  46.4045572  20.1289725  28.6522698  47.0296383
  39.8607874  38.7030077  10.2275813  39.8255777  39.3916202  10.8915114
  40.7313251  38.7892056   9.8390353  36.8633342  20.2846432  63.4074688
  37.6559782  20.1026702  62.9026604  37.0746565  21.0715795  63.9097691
  10.6915510  56.9771719   2.9209748  10.2630138  57.0560837   2.0687069
  11.1866903  57.7907896   3.0163431  26.5471172   4.8467150  27.1318889
  26.1999440   4.4781175  27.9441905  27.3233294   5.3364873  27.4036455
  56.3441706  58.3225393  50.0336218  55.7639837  57.8836632  49.4115257
  56.2143993  57.8505278  50.8561754  26.4685535   1.9050775  36.0939503
  26.9349980   2.6010838  36.5568066  25.5670357   2.2208318  36.0323334
  28.2842278  33.7244177  24.3872905  27.3442817  33.5567999  24.4553947
  28.3446360  34.5846391  23.9718390  10.6019890  45.7932472  24.7002769
  11.4109015  45.3510380  24.4427085  10.2604759  46.1615753  23.8854551
   6.6062874  22.7727866  24.6523976   6.0703528  23.5624504  24.5786476
   7.3537147  23.0397034  25.1875043  25.6127357   8.2162869  32.7207661
  25.2436352   7.3566628  32.5181723  26.5251112   8.0375642  32.9485011
  76.5989542  53.8156509  18.2156444  76.0838509  54.3710947  17.6305079
  75.9667635  53.4933949  18.8580739  30.6413484  73.8238430  23.4718776
  29.7550416  73.5973644  23.7536597  30.7496476  74.7381306  23.7337446
  24.7563696  68.4572077  34.5947003  24.2788601  69.2781782  34.7139502
  24.1883039  67.7912712  34.9820852  60.8834028   8.9580733  19.8411918
  61.1054897   8.7280929  18.9389622  61.1593914   8.2000685  20.3564501
  -0.0111808  24.4738030  27.0954370  -0.3114531  25.0313425  26.3776493
   0.4950527  23.7836099  26.6669607  51.4498461   0.4162649  12.2921705
  52.2629465  -0.0508305  12.1000171  51.7133463   1.3330368  12.3717642
  19.8510551  52.4171495  29.3017173  19.6119869  53.1627655  28.7511420
  19.2680955  51.7130566  29.0177321  12.9462516  27.4294901  35.2205658
  13.8392925  27.1986556  35.4763532  12.3893523  26.9282913  35.8162999
  79.1923714  14.2808247  35.5737734  79.8020267  14.9740219  35.3207302
  79.3857670  14.1169477  36.4967990  75.0814676   5.1318753  15.9249508
  75.8445120   5.6893134  15.7724571  74.4128180   5.7281017  16.2620735
  35.4107380  36.9365406  31.1194754  35.1521921  36.4747262  31.9170427
  35.3714585  37.8632545  31.3558865  32.6321554  10.6896150  65.0932884
  32.6729989  10.0728524  64.3624210  32.3580265  11.5155566  64.6946573
  32.8573132  63.4758711  43.4015703  33.3083463  63.6757040  44.2218590
  33.1161761  64.1807890  42.8080177  29.0944076  62.8846073  38.2041907
  29.0436411  62.0854235  38.7285519  28.2630014  63.3304787  38.3660388
  17.7510047  52.5819731  64.0574408  17.2408497  51.8018961  63.8396072
  17.0957410  53.2381201  64.2947817  18.8249242  42.9102135   0.7629725
  17.9849064  42.5891113   1.0908400  18.7735081  42.7904367  -0.1853111
  13.7170506  56.8327427  63.9378548  13.1431603  56.1225462  63.6506271
  13.7540877  57.4283218  63.1894255  28.9627647  60.7953978  49.5565176
  29.4905496  60.0155067  49.3849277  28.5305405  60.9803057  48.7227154
  37.7544260  29.3338847  39.5460391  38.1805706  28.5063839  39.7693610
  38.4571791  29.8761702  39.1878510  46.5143251  77.3203325  31.1967897
  46.7430067  76.6915941  31.8813491  45.5952120  77.1379089  31.0013795
  56.1819649  32.2929239  60.9448338  56.8634987  31.7649055  60.5289650
  56.0550022  31.8876266  61.8026495  24.7670412  52.8435087  44.6843338
  24.0020967  52.7543449  44.1158772  25.3136921  52.0873785  44.4706392
  56.5611172  60.6879520  46.2768888  57.3061991  60.9087896  46.8357372
  56.0467672  60.0701714  46.7965269  63.9335680  41.3796949  13.5395300
  63.2064152  40.7792044  13.3755434  63.5899258  42.0027733  14.1797757
  47.3122978  51.7732000  47.1832991  47.0218897  52.0158720  48.0625057
  48.2653904  51.8561506  47.2144556  27.0725083  67.4853563  54.5104933
  26.4316607  68.1936502  54.4482851  27.8697038  67.9107094  54.8263836
   1.9691242  64.5192480   9.2831922   2.5656462  65.2616358   9.3794113
   1.2929964  64.8316431   8.6819488  35.8391762  56.3929892  63.0310106
  36.4857912  56.1992073  63.7096596  36.1557579  57.1981478  62.6214600
  14.7922051  67.4642181  11.6155493  14.3061996  67.7887964  10.8574736
  14.7520220  68.1797409  12.2500932  69.9008846   8.8505501  40.5406523
  70.6169701   9.1652328  39.9889064  70.0913572   7.9219890  40.6737852
  53.8675737  53.9225769  44.3440199  53.2950211  53.5180044  44.9957371
  54.7093010  54.0164804  44.7900105   8.0141973  63.3930302   8.9684862
   8.1135970  64.3274450   9.1507488   7.2366279  63.3387661   8.4129030
  76.9720984  10.5911350  59.4723368  77.6358366  11.0575294  59.9804258
  77.2918892   9.6898985  59.4306374  41.7960596  54.5482254  46.6565561
  41.2045956  54.5483255  45.9039640  42.6724482  54.5233774  46.2724257
  36.1338139  42.2133541  31.0699892  36.8410707  42.7721071  31.3921952
  35.3398180  42.7309704  31.2036872  12.7499437  48.1981754  59.0444517
  12.6494169  47.5772190  58.3229685  11.8566394  48.4750032  59.2484283
  28.8317966   6.7463392  -0.2077301  28.8089943   7.6993561  -0.1212934
  28.6914778   6.4217442   0.6817535  44.0983152  58.3979654  40.1856279
  44.0342093  59.0818357  40.8522940  44.8101664  57.8342390  40.4884624
  76.2488651  63.6465883  56.0904169  77.1240139  63.2950211  55.9268713
  76.2565660  63.8868570  57.0169401  31.1733127  76.7372322  42.6789522
  31.2973666  76.9277000  43.6087704  30.5723524  77.4167204  42.3733759
  19.5639741  75.8968544  22.3524094  19.9799955  75.5246687  21.5748262
  18.6313665  75.7162142  22.2347474  49.7616053  50.5868006  41.0556889
  50.3433418  49.8326063  40.9607935  48.8807917  50.2121544  41.0495424
  42.9757738  60.9196806  44.6857738  42.4045467  61.6467428  44.4381714
  42.4654722  60.4206228  45.3235531  43.8113785  58.2921982  34.7573972
  44.7204161  58.5580635  34.8959541  43.4315443  58.9999247  34.2367458
  64.3633461  74.4605589  17.1920323  63.7630606  75.0828743  16.7814136
  63.8076115  73.9370489  17.7693796  46.9311285  53.6796379  11.9172752
  47.7604342  54.1517305  11.8423295  46.3270950  54.3158770  12.3001289
   5.3698003  46.8347454  45.6370020   5.3318393  47.4010611  46.4077663
   5.2549142  47.4301863  44.8964024  31.7629766  71.0675097   5.6149632
  31.1809945  71.6850662   5.1720709  31.1960077  70.6040430   6.2313867
  55.5682564  20.4063296  14.5299065  56.0002899  21.2442160  14.3640077
  56.2830973  19.7705913  14.5625877  26.6104746   3.5630435  19.2954242
  26.8128753   4.2648000  18.6767125  27.2790360   2.8981575  19.1305494
  41.3956213  14.8637354  34.0129709  40.6014490  14.5747709  33.5635042
  41.7293835  14.0749824  34.4404101  30.5101800  65.1084042  27.5004315
  31.1379123  64.5332432  27.0629716  30.1581025  64.5786905  28.2157469
  62.2955132   5.8380890  48.3649826  62.9318666   5.5611080  49.0242004
  61.4447832   5.6280559  48.7501812  62.7920532  73.1676388  30.4826236
  62.0057201  73.1834221  29.9370408  63.2343435  73.9942169  30.2892900
  61.5399218   1.4824411  24.4677138  61.4535713   0.7260749  23.8874674
  60.7715321   1.4367865  25.0366855  56.1185598  57.4004698  43.8739347
  55.8935738  56.6691065  43.2988501  56.1724234  58.1567669  43.2896900
  22.8249764  15.6961501   6.2241840  22.4388695  14.9109733   5.8360481
  23.1901360  15.3969502   7.0568722  22.0117998  72.4645615  19.0062165
  21.8909955  71.6630697  19.5153773  22.7158976  72.2547150  18.3926666
  25.7413268  67.8025341  21.1252332  25.6984353  67.4980021  22.0316839
  26.6775250  67.8412914  20.9296298  62.1784782  62.4695873  23.8816953
  61.8382215  63.3466244  23.7048888  61.4957476  61.8791056  23.5631967
  21.0941458  67.2993612  39.0620422  20.3287816  67.8514433  38.9018536
  20.8226967  66.4259052  38.7798691  20.4912853  52.7762461   3.4544501
  20.3354979  53.5969687   3.9217576  21.1894107  52.9831934   2.8331375
  33.9624286  63.2791615  66.8034697  33.9897108  62.8462362  65.9501982
  34.4307804  62.6841688  67.3890114  42.1800327  20.6937218   2.4226449
  41.6439819  21.1428618   1.7690751  43.0810785  20.9115005   2.1840574
  52.4136747   0.2703098  38.5345769  51.6630949   0.5738262  38.0239487
  52.1378292  -0.5763289  38.8857794  16.7107785  43.0598450  17.6813722
  16.9378090  43.9421511  17.3877287  16.1396086  43.1984186  18.4368825
  43.2751036  55.4327345  30.8390450  42.7261353  55.6798124  30.0948572
  43.9870691  54.9228191  30.4526138   7.4227613  58.5404158  58.6188650
   8.1670308  58.5790300  59.2195320   7.5554264  57.7313709  58.1248188
  19.1273034  49.3479967  28.4395432  19.6562374  48.9145279  27.7697921
  18.2258260  49.2510033  28.1326866  74.9346972  15.2560139   4.5187569
  74.1122913  15.7306075   4.3977392  75.6112576  15.8757782   4.2460078
  19.7887242  59.3662643  27.9235888  18.8580525  59.3148279  28.1413913
  20.1276159  60.0643969  28.4839416  28.7687969  66.7456913  38.5601592
  28.7784028  67.6635504  38.2887197  29.6227980  66.6081953  38.9700484
  39.6096087  71.2222576  41.0270882  39.2607284  71.5709400  40.2067661
  39.1599345  71.7204809  41.7095852   7.0162684   2.3995955  53.0899811
   6.2787449   2.9540980  53.3445740   6.9417614   2.3238146  52.1386957
  42.4714994  46.2868452  52.5421047  42.2691774  46.5478373  53.4405375
  43.0741119  45.5492115  52.6369143  62.4372721  49.0740728  29.5615172
  63.3781719  49.0296412  29.3913460  62.1174717  49.7500658  28.9640284
  42.9339170  72.9776859  59.7218513  42.6761627  72.2770882  59.1227245
  43.5377359  73.5183001  59.2125607  19.0372324  69.2715502  58.2999420
  19.3037784  69.1622066  59.2127562  18.0991423  69.0812397  58.2999134
  16.6535151  35.1415205  66.1928177  15.7981813  34.7133970  66.2295294
  16.6477776  35.6172657  65.3622389  45.9908962  12.4769866  44.4536781
  46.5802383  12.1504819  45.1336002  46.2457514  11.9975686  43.6653662
  24.4960213  53.6995363  32.4271321  25.3783679  54.0360451  32.2707462
  24.1064239  53.6345911  31.5552235  45.7953501  60.7743406  62.7890444
  44.9155283  60.8332777  62.4166536  46.1391735  61.6659307  62.7334738
   9.6199918   1.9607991  40.4633522   8.8020927   2.4486387  40.3669882
   9.7542453   1.9027893  41.4093113  40.0355339  54.1422510  39.0617394
  40.0966978  55.0115728  38.6657977  39.2562652  53.7527418  38.6651850
  31.3507700  56.1513805  22.5681949  31.3901973  56.8214464  21.8857789
  30.9144974  55.4090548  22.1500492  76.2830496  60.4532146  49.6627760
  75.4822350  60.6437445  49.1742802  76.2455177  61.0362244  50.4210138
  79.4477797   3.4474179  57.5367308  79.1465425   3.1427914  58.3927011
  79.1875792   2.7538708  56.9304991  32.2533083  35.2386332  63.7331963
  31.5448785  34.7458506  64.1473484  32.6914239  35.6836915  64.4585991
  65.5879211  47.2862911  39.1478539  64.9329138  46.5887737  39.1220069
  66.4257050  46.8263006  39.2003632  30.4987454  53.5048199  11.9430637
  29.6976662  53.0889797  11.6243434  31.0982680  52.7765608  12.1056890
  25.8836365  76.3313198  31.5743351  24.9444222  76.3289595  31.3896632
  25.9619284  75.8959341  32.4231815  80.1578712  17.7069950  59.3730164
  80.7450771  17.3057330  60.0136471  80.6373215  18.4719086  59.0547895
  34.6008420  59.9501371  46.1410141  35.2744699  60.1126575  45.4806805
  34.3267488  60.8227110  46.4233541   7.9664671  59.4843245  65.3422689
   7.3504937  58.7547016  65.2755022   8.6560661  59.1631937  65.9232664
  37.3644519  62.2884417  34.9057937  37.2023416  61.6048384  35.5558991
  37.5085402  61.8120670  34.0881515  75.8111382  46.6054487  50.5481386
  76.5807438  46.0363865  50.5377817  76.1317635  47.4355268  50.9008455
  40.1092911  58.7223959  58.5408449  39.3463874  58.2830095  58.1651497
  40.6248093  58.9973640  57.7826452  42.3615551   9.8795784   6.3444722
  41.5654278  10.1463819   6.8040663  42.7254343  10.6960011   6.0020095
  34.2459846  69.0106773  36.7109561  34.5893025  68.1505537  36.9529271
  33.8951540  68.8889980  35.8287191  47.0892477   3.3987802  37.6954460
  47.3460388   3.8389060  36.8851519  47.9141235   3.2439518  38.1557012
  22.4616599  42.9223347  15.9800446  23.3337092  43.2454920  16.2066031
  22.0689178  43.6305141  15.4696882  70.4127693   6.4970475  28.5417485
  70.9698153   5.7315385  28.6829233  70.5200958   6.7033988  27.6132369
  60.2159977  45.0015783  42.9429579  61.1593723  44.8481178  42.9951048
  60.0507784  45.1642704  42.0142651  39.1710711  57.3576355  22.3947358
  39.4247103  56.6515923  22.9892135  38.2180977  57.2901011  22.3354697
  54.7251701  55.7170582  34.6336675  54.3711615  55.5128002  33.7681103
  53.9709282  55.6606436  35.2203298   6.1325479  55.6919384  34.8957300
   5.6475264  54.8667240  34.8987246   5.9727281  56.0668373  35.7618380
  32.2217321  55.5347013  31.9106054  32.7017760  56.2591505  32.3118067
  31.3723493  55.5366564  32.3519397  43.5281754   4.0681222  58.3248186
  43.3179951   4.8302627  58.8644457  42.8386641   3.4351915  58.5253286
  38.3726931  76.4908743  34.4987178  37.9546523  76.0619020  33.7520885
  38.7471080  75.7726383  35.0088000  63.1645250  51.3346624  50.8455324
  63.5633183  51.0540104  51.6692019  63.8858700  51.7225456  50.3501081
  43.2040739  67.8589964   7.7443576  43.4043312  67.1562815   7.1260405
  43.8273478  68.5526991   7.5286102  68.4433270  71.5718508  55.9872150
  69.2309570  71.9565535  56.3717556  68.6822462  70.6616116  55.8122683
   5.9512484  33.9007425   2.8111717   6.4284724  34.3666315   3.4977835
   6.1748326  34.3668699   2.0055865  15.7584107  40.6980085   9.9134767
  14.8336911  40.9258842  10.0093937  16.0057235  40.3371620  10.7648611
  76.7916870   6.3325632  42.3731184  77.3953581   6.9965649  42.0400763
  77.1872282   5.4993272  42.1171951  67.4977827  11.5385103  25.5917358
  68.3612013  11.2103534  25.8428454  67.6314211  12.4745023  25.4424286
  76.6076899  72.2196054  26.8058801  77.2349215  71.9190359  26.1482549
  76.3883400  71.4327812  27.3049068  50.6522942  63.3302593  25.3630614
  50.1925993  62.5700903  25.0066161  50.3921986  64.0554810  24.7950506
  64.0685844   0.9967083  29.3063021  63.2054567   1.3958943  29.1972542
  64.4148540   0.9280545  28.4165764  19.7054505  73.7461805  39.7736788
  18.8505888  74.1309977  39.5803905  19.5325518  73.1189871  40.4757929
  16.7676306  76.5980434  55.0785923  16.3357794  77.4379206  55.2346373
  16.7326677  76.4835453  54.1289091  71.0842991   4.7528812  38.9905572
  71.3605070   5.4541552  38.4005094  70.5194616   4.1968635  38.4538674
  62.2025633  58.9808989  55.1714706  63.1484461  59.0845394  55.2753925
  61.8240023  59.5644474  55.8290386  50.8450460  26.7652297  61.4895201
  51.2787724  27.5348568  61.8580103  50.6533957  27.0089412  60.5839205
  58.0388260  17.6147139  36.9392037  57.2633982  17.4486852  37.4752784
  57.8921461  17.1059382  36.1417913  40.7323027  62.8825283  52.0759535
  41.5246582  63.0300951  52.5923157  40.2477551  63.7055159  52.1403027
  46.6307449  73.6994410  41.6340590  46.8969488  73.2031918  40.8600426
  46.4624786  73.0326557  42.2998810   8.1726706  18.1056976  57.6551437
   8.8301671  18.0935705  58.3506870   8.6594993  17.8836620  56.8614626
   5.2401024  58.9662647  11.5065527   5.3404516  59.2541838  10.5992138
   4.5353413  58.3192635  11.4759755  79.0928507  57.0784903  25.0588226
  79.0597963  56.2086391  25.4569435  79.1072750  56.9102716  24.1166306
  54.8154593  42.5354147  52.4372387  54.8559046  43.4915686  52.4563503
  54.3162155  42.3011208  53.2196045  48.3277512  52.6737261  51.4413404
  49.1751719  52.2336006  51.3750267  48.5254478  53.5124874  51.8580294
   1.6519859   3.4770781  49.5323801   1.8365230   3.5984462  48.6010122
   1.8040672   2.5448015  49.6871805  12.6758182   1.2384843  19.8844206
  13.1530380   0.7627252  19.2046070  12.9327679   2.1524443  19.7624123
  49.0016747  66.1347151  50.5650425  48.5326195  65.3519773  50.2760029
  49.4866753  66.4225674  49.7916460  64.8233938   3.9735794  48.1115627
  64.5583773   4.4478247  48.8996553  64.0835571   3.3977827  47.9183578
  59.2891788  68.3698082  49.7998953  59.5463657  67.4827051  49.5486355
  60.0315475  68.9164209  49.5423412  39.3741393  57.3679638  42.9677582
  38.8185787  58.1417847  42.8740263  38.8491082  56.6515350  42.6109648
  55.8585262  74.3581295  32.1459627  56.2251472  73.9701557  32.9405046
  55.7871580  75.2914524  32.3460889  18.0822682  15.4721916  24.4839668
  17.3011279  14.9552095  24.6808982  18.4299386  15.0844097  23.6808586
   9.4006383   9.0201086  39.9329400   9.2260575   9.1190088  38.9970064
  10.1691067   8.4509259  39.9744058   5.7965064  55.7571125  56.4568853
   5.5630410  55.0778294  57.0895767   6.6991824  55.9883261  56.6758537
  57.6683664  67.6773357  44.1625214  57.4176788  68.4980679  43.7385082
  57.7774906  67.9079580  45.0850916  68.2748461  19.2243493  29.3564057
  69.0989161  19.4702590  29.7767234  68.2526779  19.7420061  28.5515618
  34.3164539  67.9800129  58.9426804  33.7837195  68.0157757  58.1482315
  35.0790763  68.5234261  58.7443256  43.4805107  68.2583857  40.5617905
  43.7131739  68.7382841  41.3566446  42.6439810  67.8421068  40.7695484
   9.0816063  68.5627317  34.1387320   8.3893967  68.2323790  33.5660648
   9.8589659  68.0641222  33.8870645  50.7265329  66.8148613  16.0612762
  51.3541079  66.8950939  16.7795706  50.9402323  67.5402021  15.4743791
  62.1703339  23.4668779  56.3205957  62.5795984  23.4692073  57.1858883
  61.8958235  22.5595355  56.1879253  58.1079912  68.1900978  52.9266500
  59.0320301  68.0441761  52.7239323  57.6351881  67.6711082  52.2760105
  34.9711847   1.0422961  33.3532500  34.1026616   1.3695113  33.1190944
  35.0192547   0.1775550  32.9456425  10.9766173  24.3598962  30.9473538
  11.7482293  23.8081241  31.0753989  11.2954807  25.1021552  30.4339290
  17.6043773  52.3737621   4.0524110  17.9852808  52.2379160   3.1848335
  16.6632903  52.4444151   3.8924256  72.7495956  65.8054590  57.8673553
  72.8182030  65.1238966  58.5359383  73.3114004  66.5116119  58.1866598
  27.3844147  49.3377113  10.2148581  27.0486784  49.8033142   9.4488788
  28.3325171  49.4631481  10.1748466  20.1491261  68.9931822  20.5947804
  19.6537220  69.0719366  19.7795475  20.6163740  68.1619072  20.5117559
   6.1336404  10.1957834  51.3352251   6.4385962   9.3116850  51.1312532
   5.5746979  10.4330170  50.5952692  53.8862944  11.2341988  19.9124038
  54.7929287  11.0954714  20.1862669  53.3676577  11.0371447  20.6924152
  64.4921207   4.1567677  63.0720949  64.9321222   3.6856839  63.7797070
  64.7646666   5.0673896  63.1848669  52.1837044  74.5765686  66.2349749
  52.5668573  73.7052774  66.1336422  52.0465803  74.8836279  65.3387928
  46.6409159  55.4043341  27.0663404  46.4491844  56.3375139  26.9733667
  46.6280317  55.0667810  26.1707258  32.5097919  76.3105297  21.0347486
  31.8086672  76.7418098  21.5232706  33.2618666  76.3312769  21.6265106
   8.3704132  39.5704985  58.5002279   8.3095503  39.8740602  57.5944805
   8.8682145  38.7546945  58.4464788  33.3019495  63.3340025  29.8327851
  33.9349794  63.8774347  30.3020287  33.8179731  62.6011658  29.4967723
  40.3026724  60.7292175  53.8250637  39.5520544  60.3414822  53.3751011
  40.5522346  61.4732981  53.2770777  29.7769380  26.1405659  27.5948381
  28.8497090  25.9366918  27.4727106  30.1862884  25.2945781  27.7764082
  73.7124194   0.2419094  65.2208233  73.9673603   0.3373960  64.3031502
  72.7816142   0.0209478  65.1890707  42.0717335  13.8116860  45.3860378
  41.7836857  14.2561746  44.5887375  42.4769878  13.0019236  45.0757360
   7.5012988  46.1028242   2.5171405   8.1729400  46.0982561   3.1991294
   7.6605451  46.9109964   2.0295613  61.6738033  72.1488190  61.5172911
  61.8812561  71.5052795  60.8397627  61.0790873  71.6892767  62.1100569
  72.5929689  10.8725739  31.0244966  73.3780670  10.4535973  30.6719160
  71.8666363  10.3765893  30.6467772  78.3497715  10.0786853  62.5979090
  79.0901279  10.3506744  63.1402445  78.7449694   9.5659029  61.8928528
  54.9489117  12.1048558  41.3213110  55.4521084  12.2010040  42.1298790
  55.6111336  12.0457220  40.6326866   1.7381968  26.3495684  50.1364040
   1.5232520  25.7659745  50.8640337   1.1518160  27.0978212  50.2482367
   5.9171265  26.7180634   7.3062420   5.7458878  27.4718642   6.7417115
   5.2404630  26.7659688   7.9815674  32.1413493  33.0457592   9.8705411
  32.0412540  33.2201242   8.9346939  31.7606091  32.1762943   9.9942416
  78.1519318  18.9162719   9.8411834  77.9017973  18.8084269  10.7588077
  77.7752447  19.7589374   9.5876968  64.6120024  70.8393097  29.6070099
  64.1023827  70.0403166  29.7416663  64.0091228  71.5484333  29.8304200
  60.3940153   5.6818599  31.1064219  59.7496319   4.9829808  31.2185621
  60.4341888   5.8210367  30.1602459  74.9054193  35.2128172  31.6391659
  75.5664110  35.2776814  32.3284483  74.7564459  36.1175132  31.3642812
  21.1547065  50.8679581  48.4244967  21.8961859  51.3848448  48.7395668
  20.9370494  51.2538528  47.5760031  62.9953289  56.7377138   7.3022014
  62.7933025  55.9733868   7.8418499  62.2070312  57.2787142   7.3484981
  45.8424377  65.0707197   7.8532809  44.9881649  64.6457911   7.7765679
  46.3997936  64.6018696   7.2321844  26.2458205  39.5125508  33.4214425
  25.4955983  39.3182874  33.9832783  26.5515256  38.6552310  33.1251645
  62.9163885  60.7181978  30.7121110  62.2073889  60.0751209  30.7102895
  62.9800653  61.0019159  31.6240764  23.8069892  46.8644953  19.7948146
  23.6307406  46.8728352  20.7356119  24.3343878  47.6487303  19.6429777
  53.2660055  53.8651085  41.6405296  52.3709631  53.5483122  41.5190029
  53.3078337  54.1166925  42.5631285  18.3503282  27.4693918  26.7695928
  18.4518874  26.5175962  26.7672420  18.4614909  27.7198577  27.6867318
  40.8244658  67.1928692  11.6082454  41.1882639  66.8089056  10.8104634
  39.9446344  67.4752617  11.3584888  12.8670788   7.8527421  13.4530127
  12.2019172   7.2574073  13.1075156  12.7935123   7.7683455  14.4036424
  29.2293072  43.4831953   4.0571308  29.8240805  44.2024183   4.2697167
  28.7395811  43.3305502   4.8652756  53.2786703  43.1554413  37.8814459
  53.4409094  44.0812635  38.0624437  52.3308039  43.0973911  37.7613616
  73.5919857   2.6664928  46.0648966  73.2054377   3.4597641  46.4357519
  73.8970089   2.1708424  46.8248463  46.6816998  61.8998480  33.7231708
  47.0904636  62.7629280  33.7882304  45.8973598  62.0455599  33.1941962
   8.9673084  38.9610815  67.1472788   8.6969632  39.6363401  66.5250492
   9.0387577  38.1649423  66.6206980   5.4331368  39.3647957  15.9151471
   6.1611027  39.2055702  15.3143609   5.8367807  39.7853613  16.6743755
   1.0412952  12.2258759  31.0134864   0.2330459  12.7364993  31.0607028
   1.2620479  12.2124302  30.0821877  49.8509741  66.1771822  41.0541248
  50.4550171  65.6783009  40.5041456  49.4223356  65.5171204  41.5989399
  10.6878757  77.0905781  54.4479418   9.9882126  77.5003195  54.9566793
  11.2096238  76.6173029  55.0960302  48.8306570  58.9402056  16.2228656
  49.2758179  58.2276964  16.6815555  48.6637354  59.5944595  16.9013357
  25.8296180  21.9647813  28.6189175  25.5291247  21.9042444  29.5257092
  26.6378331  21.4522862  28.5997033  71.1214685  46.4175129  24.9897933
  70.8922386  45.5236006  24.7356129  71.7654896  46.6941881  24.3379354
  48.7411785  76.7627287  51.4569759  49.2268372  76.7605114  52.2818184
  49.3984079  76.5591335  50.7915211  67.3321342  25.9691215   7.1499014
  67.2484207  25.5029726   7.9817247  66.9745588  25.3646278   6.4995492
  40.8728456  74.6121311  26.0483098  41.6075897  75.2157354  26.1580563
  41.1846209  73.9684677  25.4121280  65.2116919  34.1876912   1.2108862
  65.2290916  34.0216255   2.1534099  64.2934895  34.3772435   1.0179929
  54.6298218  66.0866690  65.0620365  54.5273018  66.6850090  65.8021116
  55.4982996  66.2852859  64.7119856  26.7489791  65.7533312  29.4728923
  26.2733984  66.5696573  29.3190551  27.0022321  65.4553843  28.5992098
  18.0230939  19.7109461  50.8533478  18.2667387  19.0592325  50.1959801
  17.5287390  19.2176366  51.5079403  56.5052366  62.9809999  28.9628720
  55.9551477  62.1997881  29.0207028  55.8857012  63.7027979  28.8560128
  75.3639078  41.6344452  46.1207771  74.7330332  41.8091393  46.8191433
  75.8861876  42.4345970  46.0641432  55.8424187  64.7756243  34.9000716
  55.4864407  65.5535126  35.3294849  55.0957680  64.3940973  34.4383550
  18.5039079  35.0453162  28.2114768  17.5932944  35.0033188  27.9194975
  18.9291155  35.6321573  27.5861406  78.5263920   0.4402268  29.0865493
  78.7060785  -0.1632908  28.3656383  79.3143177   0.9801450  29.1489577
  54.7552156   1.6073497  38.0735946  54.3757629   2.4855439  38.0415750
  54.0057611   1.0273871  38.2084870  36.6435385  71.5364695  38.3826041
  35.9919143  71.7230511  37.7067304  36.5435243  72.2482491  39.0147352
  60.1459503  69.8924637  46.6289234  60.9733295  70.3727102  46.5967846
  60.3004646  69.1131544  46.0950375  29.6963573  70.7719374  22.3125839
  29.4569063  71.0893536  23.1832957  30.4557300  71.2997866  22.0656848
  33.9933085  37.0333505  16.8644369  33.6494970  36.5752578  17.6313639
  33.2462525  37.0985699  16.2695551  49.5131111  52.5432920  29.1346550
  49.7945833  53.1315517  29.8353386  48.5741997  52.4283171  29.2811537
  65.3079700   2.2860701  43.9282084  65.5505085   2.2273219  43.0041122
  65.9593010   2.8745908  44.3098354  28.2375121   0.3957172  14.0101624
  28.2738638  -0.5370555  14.2219293  27.3595953   0.5258868  13.6516213
  46.3592768   1.3580748  45.0361395  47.2269154   1.0018240  45.2272463
  46.5316105   2.1397987  44.5113182   2.2007032  26.2292790  41.1112833
   2.7350852  26.2373853  41.9053888   2.1206993  27.1513200  40.8670044
   8.1633806   6.5572780  48.4825754   7.8843778   6.6133666  47.5686598
   8.9498192   7.1011508  48.5267210  27.5884676  -0.0682810  31.8800664
  27.7480483   0.7701810  31.4467669  28.0716944  -0.0078273  32.7041221
   8.2210040  54.7241259  10.8198988   9.0301281  54.8139000  10.3164196
   8.1363070  53.7827730  10.9712899   1.4990231   0.5688801  29.6132636
   1.3272668   1.0935016  28.8312769   0.9104379  -0.1816081  29.5322299
  62.2919226  63.2877827  18.8483691  62.7300692  63.8711834  19.4679666
  62.4860287  63.6618090  17.9889154  61.1483192  39.7611737  47.9661560
  60.5030918  39.6345472  48.6617661  60.9617186  39.0646243  47.3366833
  38.6247969  67.1053123  50.0207329  38.9612293  66.2117910  50.0890160
  38.1398916  67.2415209  50.8346987  43.0318975  63.2310438  53.3899689
  43.9156485  63.5342979  53.1819916  43.1344128  62.7320671  54.2003632
  47.7938843  64.0881729  41.2769508  47.9022503  63.1849527  40.9791565
  47.1910095  64.4783354  40.6440592   1.9119875  76.5637398   2.2046396
   1.1238915  76.1501980   2.5569442   1.9955263  76.2059355   1.3207680
   3.5040265  62.8342819  47.8803587   3.6245528  63.7837124  47.8633022
   3.8212246  62.5680494  48.7433386  41.5184546  58.1329060  46.0276604
  40.9541845  57.3750067  46.1807013  41.3597012  58.7051773  46.7783451
  48.1777239  56.3539934  49.3911457  48.4537458  56.9774008  48.7192822
  47.2657108  56.5829563  49.5701456  33.7921929  23.0967140   8.2819092
  34.2106938  22.2575140   8.4738255  34.2063332  23.7142777   8.8846809
   6.9668686  20.6933808   2.0365213   6.9923699  21.6493082   2.0787464
   6.0358846  20.4762435   2.0850226  60.4256916  52.1486664  64.1414213
  60.2147532  53.0267239  64.4588280  61.0554266  52.2940826  63.4353590
   3.8207424  75.1303339  37.1412182   3.5101783  74.6282244  37.8946567
   4.5618469  75.6338930  37.4779963   6.5452695   9.1207713  58.9070749
   5.9651119   9.8793310  58.9721584   6.3909113   8.7759483  58.0275822
  75.3768015   3.9609322  58.6014938  75.9279442   4.6251106  58.1875563
  74.8780775   3.5793582  57.8790617  64.8683643  56.8273687  42.5709629
  65.4647350  56.7937994  41.8229961  65.4206944  56.6277552  43.3268166
  15.1064730  10.8471549  47.3683596  15.3302372  11.7772365  47.3350143
  14.2812467  10.8165514  47.8524017   0.5717940  16.7149615   6.7493027
   0.7108766  17.4391997   7.3595208   1.3839465  16.6673970   6.2449437
   1.0127656  30.0511980  62.8993750   1.5856716  30.7372975  62.5569153
   1.4090151  29.2345381  62.5955915  40.3128862  61.9273472  23.9151859
  41.2228632  62.1913052  23.7791705  40.1947975  61.1702728  23.3414912
  61.2997627  22.7591300  59.3796444  60.9244347  21.9329643  59.0749884
  61.0195923  23.4035826  58.7297106   9.2382741   7.6269674  32.3951030
   9.9199396   7.2177392  31.8620944   9.7173631   8.0909508  33.0817056
  78.5582829  24.5438075   5.7294595  78.2249832  25.1004982   5.0257277
  79.2338276  25.0728059   6.1537588  60.2122068  54.2521524  66.0906744
  60.2095604  55.1962233  66.2486458  60.1527357  53.8631392  66.9632387
  15.6482160  57.8750038  49.6530104  15.3625917  58.4639978  50.3513908
  16.5359211  57.6191807  49.9035454  45.1731682  75.3689957  46.9199181
  44.6732473  76.0608435  47.3531151  45.1675367  75.6130695  45.9943771
  71.2500000  51.7831802  54.3463421  70.8599615  50.9654617  54.6552801
  70.5304384  52.4141216  54.3658209  35.9314990  72.1287680  62.8592539
  36.1151314  71.8033028  63.7404919  35.0469851  71.8167448  62.6681709
  69.7951984  23.0528760  38.6349654  69.3024445  23.4822488  39.3342972
  70.7094431  23.1190944  38.9106679  25.3640604  66.9703817  51.8981457
  24.9672484  66.1974096  51.4965343  25.4225826  67.6070547  51.1857843
  19.6360600  30.4914331  13.7822175  20.0873232  29.7777224  14.2330086
  18.9413631  30.0594807  13.2851827  21.6205239  72.9451466  28.8009572
  20.7916737  73.2558060  29.1652775  22.1155405  73.7435102  28.6170888
  49.3528700  33.1658530  52.1645880  49.7006941  33.8915062  51.6462517
  48.5959339  32.8570652  51.6666603  17.8830612  40.5766678   8.0368477
  18.6687994  41.0230875   8.3523750  17.2054601  40.8063078   8.6727369
  17.3375726  29.7275662   8.9661723  17.9292548  29.0742373   9.3394113
  16.5220249  29.2511368   8.8108325  73.8238382  12.0300817  11.4771378
  73.0851746  12.5472593  11.7982745  74.4575119  12.0464790  12.1943736
  64.0963840  19.8947477   4.0018559  64.9873686  19.5593727   3.9023483
  64.2119217  20.8145714   4.2402005  14.1669011  55.6437540  23.4267998
  14.6137679  56.4031553  23.8007712  13.6834288  55.9946680  22.6789021
  31.8956447  66.9501305  29.7817397  32.5156569  66.5124464  29.1984320
  31.0409284  66.6024637  29.5271468  36.4252353  69.4252825  57.8274584
  36.0116339  70.1845789  57.4168110  36.7084217  69.7415733  58.6853600
  73.1118345   3.7634397  40.6666517  72.4244261   4.1590822  40.1307726
  73.6814499   4.4951659  40.9040260  39.6997547  59.8307991  14.1664934
  39.1371870  59.5931864  14.9035752  39.5849299  60.7764435  14.0726638
  73.8537312   3.2761779  26.5371466  74.1088343   3.8916844  25.8499002
  74.6828032   2.9762816  26.9098926  42.4352932  57.4202728  28.5073757
  41.5298319  57.6954794  28.3637309  42.6694393  56.9423342  27.7117729
  24.7373104  70.1380873  51.6030169  24.6619558  69.3423367  51.0763931
  23.8997865  70.5854988  51.4821434  68.9442110  65.4102993  28.5775638
  68.0634451  65.0770855  28.4059501  68.9211178  65.6876850  29.4934011
  56.9815350  58.3750439  37.7318335  56.4240885  58.5178995  36.9669318
  57.0627499  57.4233675  37.7946329  46.8071032  74.2249632  62.3447084
  47.0404053  74.5100784  63.2281733  47.6473093  74.1038275  61.9024229
  63.3586168  77.5131130  16.7359579  64.2967653  77.5664759  16.5535879
  62.9684067  77.2397327  15.9057581   6.1459696  53.1176519  64.6878767
   7.0110482  53.3123684  65.0483704   6.1014706  53.6311913  63.8813210
  62.5391102  70.2219725   8.8383931  61.9221258  70.6169558   9.4544691
  63.1022263  69.6718502   9.3829072   8.1046218  15.8241808  28.8571405
   8.2763892  15.8276677  29.7987962   7.7852011  14.9403787  28.6752129
  56.1429119   8.6351550  40.7540417  57.0762205   8.6988211  40.5512714
  56.1149693   8.3852577  41.6776228  49.0901756  67.6744747  52.5445509
  49.1649866  66.9485426  51.9251490  49.6489191  68.3601236  52.1786022
  32.1527791  50.3540373  33.1387854  31.5256214  49.6727133  32.8964972
  31.8119001  50.7129622  33.9580584  61.0218382  75.1368284  58.1347656
  60.8108759  74.5133829  58.8297749  61.7908096  75.6057072  58.4589148
  48.7516594  24.6868777  11.6216004  48.7000751  23.7425065  11.7690229
  48.2413387  24.8331785  10.8251059  44.9990082  23.3734441  10.4951894
  44.9772978  24.2918444  10.2262938  45.8892393  23.0856490  10.2929676
  58.2994318   6.9055778  23.4827852  57.8627491   7.3480451  24.2106342
  58.7410593   7.6081204  23.0056787  46.2248659  71.9096518  28.8863540
  46.9848251  71.4150763  28.5796309  46.5413713  72.3819923  29.6563864
  30.6420207  17.2111738   2.6185143  31.2962532  16.5602708   2.8725541
  31.1063004  17.7965093   2.0201357  67.1095753  68.7406588  62.5936222
  66.2796974  69.1334724  62.3230171  67.4530268  68.3344269  61.7978525
   7.0309022   0.0071052  54.6156979   7.5319198  -0.6267496  54.1024351
   7.1881059   0.8451990  54.1808128  67.6193333  61.7369890  49.7520208
  67.6075029  62.4950027  50.3364086  67.4147749  62.0967579  48.8889122
  38.7961602  73.4762812  63.6897230  38.7713337  72.9746389  62.8748798
  39.3478060  72.9564667  64.2742872  25.4246616  69.6246958  54.2674160
  25.0234032  69.8534298  53.4290218  24.6889424  69.3659449  54.8223877
  78.5388947  10.8439136  40.5918074  78.8535404  10.2776980  41.2965298
  79.3315744  11.2431824  40.2333689  33.2714963  59.9576092   4.7161621
  33.2043886  60.7416534   5.2611423  32.6050591  60.0783205   4.0397584
  33.5495138  56.5164852  56.0833120  33.3786559  57.4304152  55.8557749
  34.1959596  56.2262726  55.4397964  49.4470119   8.7934983  22.9933834
  49.5246458   9.1849256  23.8634348  49.7009420   9.4937277  22.3921943
  73.6727810  68.8427639  18.3331645  74.2447996  69.4133329  17.8198588
  73.7489414  69.1707134  19.2292011  73.9728785  73.1916332  60.0747108
  73.5510254  72.4371290  60.4857922  74.8643684  72.8962469  59.8897028
   1.2633477  24.2534900  33.9257669   2.1293396  23.9855981  33.6183190
   1.2769249  25.2093410  33.8768291  72.6314402   2.4905905  53.5023165
  72.0082140   3.1985232  53.3390570  72.3287058   2.0879379  54.3162298
  21.6840553   2.0120922  20.6525636  22.4580121   1.7591493  21.1557937
  21.0580492   2.3131928  21.3111138  76.7014313  53.1041145  43.4721136
  77.1109915  53.8704777  43.8735914  76.5603971  53.3581257  42.5600719
  29.4577837   4.1263947  49.7634983  29.7816944   4.9372971  49.3713903
  29.8265195   4.1235110  50.6468201  36.0526919  67.1738243  66.4110470
  35.3079462  67.7578640  66.5541649  36.1416245  67.1279526  65.4590940
  58.3730745  77.1150875  48.3343887  58.1716776  76.5607119  47.5805044
  58.7995768  76.5266037  48.9573002  65.1047039  55.3608179  24.7380900
  64.9548197  54.8146343  23.9664364  65.7889318  54.9029493  25.2263761
  39.6016622  46.4298344   5.0408953  39.4283319  45.5829287   5.4519182
  39.6971607  46.2291384   4.1098568  42.6730537  69.4568586  36.8264866
  43.2952356  69.9544668  37.3570609  42.2476387  68.8657427  37.4476433
  33.2234645   4.1041732  38.7320328  32.4445057   4.4233748  39.1876245
  33.7504983   3.6936477  39.4175506  63.2448196  60.6857395  48.7638807
  64.1464901  60.7176399  48.4441853  63.3219862  60.3820515  49.6683407
  58.8926601  71.6981792  45.1135826  59.0729380  71.2930918  44.2652655
  59.0384007  70.9976101  45.7493448  79.5967770  35.6601882  56.3145399
  79.6290541  36.0579586  55.4444981  79.9074173  34.7648144  56.1802149
  55.8048248  77.2066355  32.8089905  55.0220108  77.4700928  33.2927561
  56.3159370  78.0114603  32.7238441  52.2870541  46.1779356  10.2567017
  53.2200193  46.0722876  10.4428339  52.2343779  46.1993504   9.3011922
  18.2304525  53.9291763  60.6143999  18.8570654  53.2055855  60.6148100
  17.7546978  53.8335562  59.7893286  31.1822677  51.1483240  35.8625555
  31.1214042  50.1950884  35.8003688  30.2960324  51.4576483  35.6751060
  71.2147999  38.9881182  39.3457532  70.9672880  38.1239009  39.0169644
  70.3848505  39.4559836  39.4380426  69.0106344  24.8423982  59.1624212
  69.9025536  25.1639366  59.2940474  68.5523748  25.5715775  58.7446547
  62.0668745  16.0221243  42.1912432  62.6452255  16.6065073  41.7011023
  62.4682951  15.1577497  42.1020794   0.9802591  14.0136290  39.6634340
   1.6168785  14.7120738  39.8154926   1.4598680  13.2070911  39.8523927
  71.3003683   5.7211572  36.2966847  70.6833601   5.6716824  35.5665612
  71.8102694   4.9134654  36.2345147  40.9533358  72.6853180  44.7815323
  41.4035511  71.8958235  45.0819254  41.6585159  73.2896376  44.5496941
  51.6969156  51.0197496  42.9413986  51.0414028  50.8194637  42.2732496
  51.1856079  51.2524748  43.7164021  38.5134053  28.5093236   3.8566330
  38.7537360  28.4875703   4.7829157  37.7635050  27.9182076   3.7898123
  60.5969858  18.9201295  45.7707834  61.4712143  19.2342865  45.5399847
  60.2721882  18.5066032  44.9709511  54.7574282  66.2644196  20.7896543
  55.6159925  65.8549786  20.8967018  54.3677998  65.8117676  20.0416422
  27.0401359  64.9649191  26.9877458  27.3867869  64.1105080  27.2447300
  27.4547172  65.1478529  26.1446047  66.6113663  46.3368607  36.0615087
  66.8365335  46.3362646  35.1311707  67.3878860  45.9841824  36.4960980
  43.7177992  52.8178692  49.7705364  42.7917576  52.7783775  49.5315361
  44.0801191  51.9868946  49.4632387  48.1251335  70.2979374  45.5592585
  47.6338959  69.5323372  45.2613068  49.0433836  70.0419283  45.4726028
  19.1215777  23.1689334  46.2210608  19.4706726  22.9356956  47.0812750
  19.7090662  23.8539124  45.9018517  78.4603262  13.5918903  58.6021948
  78.6524439  12.9373074  59.2736435  79.2468071  13.6137462  58.0570316
  66.6592598  77.8171396  64.2012310  65.8455372  77.4596310  64.5565701
  67.1750832  77.0469952  63.9624166  73.3433771  18.5665941  54.6444559
  73.1338120  18.9158428  53.7782335  73.4082603  19.3396866  55.2051258
  45.0610399  53.9530849  28.8848114  44.2668867  53.6855412  28.4222388
  45.5012560  54.5498037  28.2795334  53.6038160  33.6778736  19.7925901
  54.4264650  34.1074681  19.5582247  53.3335972  34.1051030  20.6054187
  65.0081635   9.4932413  36.1765337  65.2267218   9.9954987  35.3915477
  65.8405018   9.3983328  36.6396070  33.5210204  59.2845774  55.4769087
  34.0984440  59.7772026  56.0601187  33.7687969  59.5699215  54.5974684
  14.8208380  75.9197617  50.2793026  14.7998559  76.8744087  50.3459835
  13.8995767  75.6610012  50.2558041  19.6457613  57.7306128  41.3672876
  19.9164200  58.1556320  42.1811247  19.8987567  58.3466387  40.6797314
  38.4949994  16.3685250   7.3810941  38.7685561  16.5504622   6.4820409
  38.1116509  17.1909487   7.6858836   7.6725519  29.5803666  66.9695616
   8.5550070  29.8451519  66.7099571   7.3633564  30.2931356  67.5286531
  55.8716631   1.7476593  63.4392977  55.9484625   2.3929048  64.1421413
  55.3045368   2.1656692  62.7913284  13.9875972  40.7042599  44.5889997
  14.0665269  41.2800074  43.8283968  14.8670447  40.6840086  44.9663544
  49.2415380  32.0781231  67.0048332  49.8089600  32.8163481  66.7828178
  49.5524597  31.7863131  67.8618097  27.6689386  76.5118456  12.3535836
  27.9629469  76.1918879  13.2064712  26.7614985  76.2147951  12.2861552
  40.6349945  26.6075945  33.1662965  40.2007437  25.9949899  33.7599063
  41.4988899  26.7457747  33.5546589  15.2861011   2.7150166  25.2835703
  15.9104621   3.4394637  25.3233552  15.1778448   2.5432247  24.3481541
  32.1661377  11.3306081  48.5235977  32.8479648  10.9721005  49.0917635
  31.9481754  12.1763551  48.9153051   1.7138517  31.4736843  34.7447968
   0.8893862  31.5073395  35.2299333   2.3854050  31.3779759  35.4201412
  44.7816849  13.2504404  58.9751196  44.3681431  12.4482501  58.6562061
  44.3475342  13.4283555  59.8094416  14.9129486   4.8445097  27.9547930
  15.0452566   5.4233515  28.7055707  15.7287085   4.3481714  27.8883386
  27.1200824  62.4904919  42.6241922  27.0447421  62.3513031  41.6801691
  28.0327034  62.7471638  42.7563715  26.5060043  46.0664558  27.6857066
  26.6913557  45.4201937  27.0043659  26.9521165  45.7298517  28.4628248
   6.0602266   6.4309132  56.6903019   6.8923539   6.3627529  56.2221622
   6.1915439   5.9185022  57.4880600  32.9015064  31.0957837  41.8035078
  33.4553075  30.6900620  41.1364794  33.5134292  31.5683770  42.3678112
  78.9442205  12.6306307  54.4378662  78.3505058  12.0247352  53.9944410
  79.1069555  12.2259736  55.2899218  25.2036619  10.7364345   8.6649984
  24.6182966  10.1715422   8.1605422  25.7345390  11.1818373   8.0046809
   5.2835089   2.4908938  26.4948034   4.4669172   2.1348786  26.1445713
   5.8251196   1.7211381  26.6690612   2.3492698   9.6776515  44.3571520
   2.5555861  10.3068161  43.6659098   2.2484341   8.8431829  43.8991928
  73.5433149  14.6390665  54.7921181  74.0950537  13.9767730  54.3759632
  73.7191057  14.5434999  55.7281733   7.3370522  20.0230622  34.7238183
   6.4669019  20.0746822  34.3283367   7.2728729  20.5585480  35.5146194
  28.2193446  50.3037786  20.3466249  29.0911746  50.4045391  20.7287169
  28.3455753  50.4751539  19.4133902  73.8552189  23.6253810  43.9562035
  74.3402910  22.9865074  44.4784784  73.7946129  24.3977571  44.5183325
  71.4441252  34.7172117  35.4641771  72.0182657  34.1273952  35.9527612
  70.5906057  34.6259332  35.8877349  37.7730012  62.0458984   8.1068641
  37.7536321  61.8912697   9.0512925  37.2352338  61.3450289   7.7383304
   3.1181329  39.6720386  20.8428550   4.0382108  39.8948240  20.7012415
   3.0663428  38.7355042  20.6519246  12.7856958  62.9757881  21.0754681
  12.6915038  62.5394869  20.2287078  12.1993220  62.4946594  21.6593480
   9.3250543  51.8855238   2.0974368  10.0940800  51.9145489   1.5282364
   8.6106408  52.2142839   1.5517598   1.3955785  49.6841240  42.6985979
   1.7515701  50.2579451  43.3770037   2.1259251  49.5439816  42.0959520
   2.3317210  71.6341782  61.5292168   1.8587384  71.8053579  60.7148361
   1.7315279  71.0970497  62.0464182  79.3734455  12.0323551  14.8775792
  80.2391911  12.4405658  14.8862159  79.5136499  11.1821985  14.4606781
  28.8305306  18.2893705  12.3746157  29.7363257  17.9851961  12.4315941
  28.8774705  19.2221427  12.5842953  35.9012032  75.7987785  39.8568273
  36.4288473  75.9705639  39.0768838  35.4658246  76.6314030  40.0396204
  44.7337532  19.2378461  38.2733202  43.9496851  18.8010097  38.6059427
  44.6316290  19.2213929  37.3217273  31.2742949   8.3618861  22.1027303
  31.9116664   7.7204162  21.7888761  30.4240894   7.9869330  21.8729591
  45.6173754  21.6146922  12.7493167  44.8051691  21.1297607  12.6030600
  45.6465673  22.2534084  12.0369816   0.5132389   3.0134237  43.3820391
   0.4189494   3.7955809  42.8383780  -0.1225675   3.1339136  44.0873528
  60.2894878  51.8467522  23.9475965  60.9904718  51.2120676  23.7991762
  59.8978710  51.5808916  24.7795725  67.4484205  75.2626801  56.6821766
  67.6359224  75.3096151  55.7446909  67.2165060  76.1589956  56.9252110
  16.3539362  26.9072008  44.0473938  16.1110580  27.6493669  43.4938288
  15.9491420  27.0970964  44.8937464   8.0882269  13.0449307  43.8003206
   7.8020674  13.9252424  43.5566092   7.3465246  12.6762116  44.2800665
  59.5018986  77.8579487  62.2642899  59.2181265  77.0433898  62.6792574
  60.3926155  77.6763661  61.9644833  69.4068766  47.8515863  31.2473488
  68.4874249  47.8572655  31.5134478  69.7023201  46.9587660  31.4256978
  20.7280254  62.6366997  65.8887100  20.8872509  63.1848812  65.1203489
  19.7879434  62.4580717  65.8648300  47.6507534  70.2319526   0.3595553
  47.2650732  71.0924100   0.1949559  47.7976287  69.8646139  -0.5120648
  70.2485704  17.8509128  49.4906330  70.1829195  18.7964737  49.3570805
  69.5775843  17.4808431  48.9169979  79.2763996   0.4935310  56.8514538
  79.4261456   0.4293030  57.7946806  80.1251411   0.2877362  56.4596319
  48.2865429  74.9734449  48.6384058  47.4425507  74.6256018  48.3504438
  48.4570265  74.5306587  49.4697332  20.6221914  22.8476024  54.4320154
  21.0381961  23.6323619  54.0751934  21.3210607  22.4031973  54.9119282
  16.0883617  14.2606020  52.9079485  15.8401680  14.3926382  51.9929600
  17.0037353  13.9832973  52.8701925  38.9485192  52.0661783  33.6808515
  39.8502040  52.2069359  33.3920884  38.9912724  51.2798691  34.2250156
  24.7390509  19.2987156  45.7082510  23.9903522  19.2190564  46.2992954
  24.5262909  20.0479555  45.1518297  61.3051558  75.2557850  16.1477363
  61.2867880  75.8137178  16.9253004  61.1851358  75.8609104  15.4158545
  61.7902899  27.6415014  59.2423296  61.6116428  28.5812521  59.2767715
  61.9230318  27.4568534  58.3125353  40.3855848  27.8628492   2.0961080
  41.1088657  28.4699798   2.2525826  39.6303725  28.2774162   2.5132674
  25.2977109  62.5313950  61.6661406  25.1896930  61.7092657  62.1443367
  25.7995915  62.2912645  60.8872414   6.6378111  28.5269451  50.6678915
   6.6597927  28.3696795  51.6118288   7.3089236  27.9443574  50.3123236
  56.0972786  21.0049272   0.3619280  56.7147636  20.5304360  -0.1946688
  55.4619551  20.3425455   0.6336704   0.5754532  76.7483330  38.0962133
   0.6710214  76.0359478  38.7283540   0.2218808  77.4763012  38.6073709
  72.9395199  57.8316402  33.6398768  72.0678425  57.4364853  33.6559105
  73.5233545  57.1362162  33.9427900  74.2417812  34.1389799  41.5173626
  73.4799910  34.6473861  41.2391090  74.8398924  34.7874999  41.8887377
   3.9306453  15.2458143  56.0805798   3.7579674  15.2981734  55.1405430
   4.1990122  16.1316538  56.3245058  27.9581404  55.2184582   1.6531768
  28.8521338  55.3543806   1.3392802  27.5158763  54.7725058   0.9308454
  67.3869467   2.4893320  39.0642715  66.8300962   3.2552359  38.9244676
  67.9403687   2.4499854  38.2842708  76.0551453  43.8001204  37.7434564
  75.7681847  44.1871548  38.5705519  76.7329359  43.1727743  37.9949903
  22.8770661  76.8029881  43.7450123  23.8172054  76.9786692  43.7061787
  22.6214123  76.6645241  42.8330326  81.1307716   3.5503933  62.5460529
  81.8782043   3.1793123  63.0149603  81.1288357   4.4753930  62.7922344
  72.5614071  41.7586088  56.3766766  71.7114449  41.3627625  56.5692902
  72.4172163  42.2555447  55.5713844  52.1625900  49.7265482  61.5675402
  52.0397615  49.4596386  62.4785280  51.5170050  50.4201555  61.4320517
  19.3378079  13.8620079  65.4606628  18.4508753  14.2211819  65.4366350
  19.2893600  13.0684137  64.9276590   5.3716367   5.7505161  35.7932425
   5.3139305   6.6836488  35.9985852   5.4252714   5.3203446  36.6466498
  78.0320120  45.0888348  50.0487709  78.7172365  45.3661776  50.6568670
  78.3676291  44.2798805  49.6625280  76.8509245  53.8812399  37.2355652
  76.2007141  54.2265129  37.8473210  76.4906645  53.0409241  36.9521737
  68.1272268  31.9783807  13.3805740  68.5395193  32.8028321  13.1226420
  67.6308727  31.7069554  12.6084387  12.7851892   4.1812599  17.0250642
  12.3107302   4.8554116  17.5115216  13.4401941   3.8563874  17.6428485
  36.8931293  72.0432138  30.7007027  37.2382808  72.2266340  31.5744638
  35.9497237  71.9472551  30.8311248  58.1278944  69.3872309  61.8894625
  57.9759836  69.5943213  60.9673595  57.4129009  68.7951899  62.1229172
  50.6999493  53.1772280  40.9298897  50.3859425  52.2886753  41.0975361
  50.5356503  53.3173656  39.9973702   3.3389395  10.2150977  52.6466990
   2.8595686   9.4061899  52.4675274   4.2599711   9.9753457  52.5444651
  68.6855030  26.2843752  50.4945135  68.3525562  26.0955954  49.6171618
  69.2753220  25.5559325  50.6887293   9.2952812  38.2893252  39.6284318
   8.7331992  37.5145459  39.6322107   8.6861777  39.0272474  39.6547937
  16.1713231  22.7762580  18.6976397  15.5689347  22.0325041  18.7115169
  16.3003528  22.9972124  19.6200073  29.7329545  62.9658699  11.8448305
  30.6438613  62.6855040  11.7560852  29.5144129  63.3432627  10.9927464
  52.4315214  73.8785315  60.3678513  52.2528696  73.3537817  59.5874977
  52.3740435  74.7848511  60.0653410  80.3658581  24.7373867  52.9268456
  79.8137093  24.0051842  53.2011509  81.0612679  24.3320346  52.4088383
  21.8998075  62.0362139  55.8584785  22.7241206  62.1095753  55.3774786
  22.1642375  61.9350958  56.7728567  20.5018282  22.9645514  48.7712431
  20.2743316  22.1910977  49.2872334  20.6869960  23.6410499  49.4226217
  72.8557253  72.4590111  44.1659880  73.2051325  72.3246574  43.2850218
  73.1217194  71.6777515  44.6508694  58.4660721  66.7997599   2.7782905
  58.7151289  66.0463190   2.2430041  57.5725698  66.6068888   3.0623403
  51.3797235  67.0624685   8.2446039  50.7494926  67.2957850   8.9262223
  52.1968222  67.4768066   8.5219288  62.9520082  11.8428683  55.0739574
  63.2137299  11.5641189  55.9514713  63.2600403  11.1427820  54.4984341
  75.5324221  13.8708770  61.2947369  75.8901310  13.6262131  62.1482086
  75.9601068  14.7010994  61.0848618  70.6362772  65.0968313  63.9120245
  70.8183670  65.4397726  64.7869349  69.8166847  64.6122694  64.0104961
  37.4360466  13.3668506  27.7380109  38.1967545  13.9457572  27.7872133
  37.6701427  12.7197683  27.0726395   3.2899112  58.6015797   8.9285356
   3.3617657  59.3618488   8.3514225   3.9294097  57.9781532   8.5841316
   1.1105091  25.7621288  29.0867209   0.5695194  25.5285907  28.3323860
   1.7995040  25.0978422  29.1021776   5.5643547  15.3789365  42.6129341
   5.7543635  14.6872973  41.9790840   6.4251179  15.6872940  42.8961897
  13.0547142  11.4172518  26.8520999  12.2308517  11.8460190  27.0837045
  13.6411965  12.1363437  26.6172004  16.1235476  33.0713320  20.8636761
  16.6161466  32.5990391  20.1924706  15.2561116  32.6667595  20.8533049
  55.4815865  52.7863646  35.4276919  55.3382254  53.6634541  35.0721622
  55.5686712  52.2264910  34.6562076  23.5680842   1.6638154  34.0353870
  23.6396074   1.4146213  34.9568081  23.7105513   2.6103458  34.0315008
  71.7357969  53.2995272  48.6297226  72.5625467  53.1602478  49.0915871
  71.9842815  53.7571287  47.8265476  63.8433075  75.5920410  54.0694857
  64.2670679  74.8285055  53.6774683  63.0866766  75.2340031  54.5337629
  14.3405724  62.2342730  67.4745083  14.2119145  61.5402651  66.8279600
  14.0686750  63.0341864  67.0245695   9.7758812  12.6744246  53.2917500
  10.1881802  13.5289383  53.1650686   9.1674185  12.5908709  52.5575686
  16.2965190  25.3732967  17.4675822  16.3613260  24.4327807  17.6332998
  16.1601329  25.7600522  18.3324814   4.7299126   3.9605305  53.6912823
   4.0455079   4.3391523  53.1394958   5.2762985   4.7059003  53.9405155
  45.3309631  46.3236380  17.0599449  45.1127625  45.3946161  17.1343589
  44.5230389  46.7791319  17.2966087  29.5039630  42.2541952   1.8300609
  29.4136477  42.6383305   2.7021345  28.7061882  42.5147867   1.3697594
  30.2384138  21.9659400  40.8914471  29.4693804  21.5551019  40.4964399
  30.1612115  22.8914189  40.6595755  19.4748592  15.9147739  12.6712084
  19.3611836  16.0528111  11.7308593  20.3769207  15.6073928  12.7608430
  22.1244907  34.3840194  25.6251836  21.3005090  34.7155905  25.2683282
  22.2485900  34.8751068  26.4373803  49.2277813  59.4637251  23.2031870
  49.3093395  58.7078714  23.7847924  50.0696373  59.9134874  23.2754636
  64.2861462  77.1562004  19.1885746  65.1874495  76.9923306  18.9110243
  63.8279581  77.3982620  18.3837771  28.0843067  26.4732146  64.5438910
  28.8351536  26.8472338  64.0828371  27.9055810  27.0919585  65.2520180
  71.7992020  59.1055346  20.4293680  72.4844980  58.8383007  21.0418940
  72.2728586  59.3720722  19.6414363   9.8760188  10.7216322  11.7729115
  10.6357729  10.2596164  12.1272385   9.6157485  10.2049935  11.0102999
  22.7280617  30.5805969  56.3096094  22.6618719  29.6257734  56.2967873
  23.6607695  30.7576871  56.1874437  36.7855263  66.8927193  15.2143550
  36.9850397  67.7688885  15.5441368  36.2147403  67.0445442  14.4611073
  68.7465858  65.7156038   8.6240000  68.3062840  65.1101398   8.0275244
  69.0741110  65.1595926   9.3309748   3.5421243  49.7571516  60.3135300
   3.1834519  49.6212626  61.1905289   4.1591972  49.0354586  60.1926613
  44.5005417   3.5493666  26.7213607  43.5512066   3.5922563  26.8360400
  44.8554850   3.7370154  27.5902891  16.5731943   4.3111321  21.6500902
  16.1513472   5.1650488  21.5546775  16.8658721   4.2890391  22.5611806
  47.0961428   7.6314127  19.1442084  46.7765570   8.4502721  19.5231092
  46.4129019   7.3705256  18.5266709  38.6814690  15.6661940  36.4086127
  38.2834983  15.5769682  35.5426502  39.1963911  16.4712274  36.3537693
  42.2534752  61.0997009  39.3727398  41.8491650  60.2805471  39.0868235
  42.0625830  61.7195225  38.6687422  62.8867817  54.7450876  54.4282579
  62.9804230  54.0026903  53.8313437  63.7612009  54.8668003  54.7981262
  35.9951353   6.3787156  30.7351494  35.2826166   5.9279013  31.1882687
  36.4348173   6.8814969  31.4208031  48.6126375   9.1628307  59.6193504
  48.6092043   8.8672251  60.5297565  48.1710672   8.4627706  59.1385555
  13.3612895  23.7645268  35.7918978  13.0819404  24.2896366  35.0419259
  13.3043396  24.3622828  36.5373349  62.0797873   4.2642757  38.5284734
  62.9105711   4.1838896  38.0598950  61.5367222   4.8113829  37.9610348
  30.0766611  23.2645392  28.6952925  29.5443439  23.0608344  29.4643021
  30.9800553  23.1909537  29.0030146  18.2465386   0.8586406  23.0828166
  17.4808288   0.8291800  22.5091863  18.5293388  -0.0532226  23.1518173
  42.1039677  56.1939144  50.8242989  42.9070425  55.7305479  51.0622025
  41.7085314  55.6525660  50.1410723  61.8359470  70.5887938  42.0516205
  62.2807598  70.7058525  41.2121773  62.0966482  69.7143984  42.3409414
  79.9856472  57.7183723   2.8862935  80.5466366  57.9448223   3.6280760
  79.9967813  58.4978485   2.3308463  11.7988431  39.9600601  41.1451912
  11.9689250  40.0664234  42.0811319  11.2189412  39.2003822  41.0919476
  41.5121222  14.6025205   8.1368458  41.3548517  15.3507817   8.7126940
  42.4300718  14.3751609   8.2848573  73.8081789  75.6933641  18.3933961
  74.6989632  75.3576279  18.2933009  73.3101988  74.9521732  18.7381959
   8.0705744  17.4633372  34.5511508   7.8423518  18.3922040  34.5143700
   7.2484577  17.0073903  34.3709564  78.0769062  73.0959320  32.0878506
  78.5335207  73.5257006  32.8110623  78.3252096  73.6012840  31.3137722
  69.6155739  32.0209026  20.4510069  70.1997757  31.5029573  21.0047865
  70.0692225  32.0759559  19.6099341  50.3472948  68.0861807  36.9885540
  49.5548248  67.8640556  36.4997983  50.9366751  68.4586573  36.3327193
  72.4316645  77.1457624  57.8227234  72.2684813  77.5665855  58.6668253
  71.6721344  77.3780203  57.2884941  77.8763914  57.4684620  59.9002314
  78.6195135  58.0619860  60.0085402  77.5993013  57.5947285  58.9927578
  31.9559741  34.5102334  60.5481529  31.5398550  35.3716779  60.5166578
  31.9562435  34.2109871  59.6389341  37.9946113   3.1516433  54.4593525
  38.3485746   4.0378043  54.3841076  38.4835076   2.6427382  53.8126469
   0.6265403   1.7540112  21.1148500   1.5394625   1.5826628  20.8836699
   0.6751529   2.2415914  21.9371247  76.5100861   7.2727996  20.1100111
  76.0991287   6.7837542  20.8228803  76.9392967   8.0111080  20.5423403
  26.9727063  31.5739918  17.8715193  27.3354435  32.2212863  18.4762192
  26.9750118  30.7552600  18.3674073  31.0014963  74.5925999  13.9727259
  30.9869528  74.2697430  13.0717361  31.9152331  74.8328447  14.1263449
   8.4037107   5.8692271  36.1564112   7.4533409   5.8152229  36.2569690
   8.6015642   5.2788705  35.4293847  23.1706667  50.1796436  20.6257606
  23.3611155  50.0483704  21.5545917  22.2199059  50.0895691  20.5611491
  20.4225087  19.4806290  11.9139457  19.5656645  19.8516762  12.1245956
  20.8671832  20.1697946  11.4204419  80.8549786  67.4105310  49.7411680
  81.0028076  68.2909966  49.3959665  81.4124393  67.3610115  50.5177116
  72.6946354  20.2382874  52.7044678  72.9957056  19.9884927  51.8308640
  71.7546749  20.3863382  52.6006269  77.2621489  74.6117830  42.9126263
  76.8932390  75.4747772  43.1007147  77.2076511  74.1415119  43.7445593
  74.6232605  52.8365088  19.8957503  74.6731615  53.3824968  20.6803775
  74.0423441  52.1165276  20.1415086  75.4697037  14.5545554  41.2513113
  76.2329912  14.5020401  40.6761026  75.2346230  15.4824376  41.2532234
   1.3671564  13.2861149   7.9116607   0.7807105  13.8065481   8.4607178
   0.7851897  12.6993978   7.4286395  46.9375134  56.2302780  36.5744019
  47.7830744  56.4987993  36.9337773  46.4693832  57.0515776  36.4242315
  49.8883533  62.2489452  63.3138037  50.3035021  62.8923416  63.8881922
  50.3291082  61.4245462  63.5195446  64.7459888  28.2607102  55.5391884
  64.5286942  27.3715091  55.8190727  65.7028246  28.2786250  55.5198431
  81.5966797  22.4410677  16.2164783  81.7147732  22.2930789  15.2781916
  82.2196007  21.8456006  16.6331434  28.2597542  75.8750677  29.0588450
  27.5868773  76.4332104  29.4486499  28.9901805  76.4680338  28.8825107
   8.5752457   6.8562335  26.3448811   8.4178853   7.7908087  26.4791918
   7.9772758   6.4227349  26.9537687  18.3968592  19.3114328  47.8413296
  19.2443228  19.1768062  48.2654905  18.3554971  18.6324072  47.1679449
  31.3832402  48.5326862  17.3824275  32.2824717  48.2903290  17.1613455
  31.3486028  49.4788027  17.2413707  68.0916595  62.9671764   7.8587526
  67.4234581  62.5280666   7.3325229  68.3556128  62.3126602   8.5054123
  79.8318386  61.0868311  33.1217813  79.8872280  60.5609322  32.3239160
  78.9208889  61.0005331  33.4027648  21.9983864  46.4378357  27.5688577
  22.7182651  46.5968752  28.1793594  21.3593554  45.9381819  28.0770087
  57.4877596   1.6306314  30.3183031  58.1771612   1.1484355  30.7748580
  56.6864634   1.4100939  30.7931924  49.1066360  74.3646526  11.0893047
  49.1741085  74.6741295  10.1860309  49.0853882  73.4106064  11.0146534
   2.2176965  50.0339890  23.2289648   2.2773170  49.3330574  22.5798297
   2.7519819  49.7278357  23.9617944  79.1968298  43.4700203  36.2686276
  78.3922434  43.7399817  35.8259153  78.9372301  42.7165413  36.7988253
  23.1025624  55.6223869  29.3515420  22.8094292  54.7875929  29.7168159
  23.5271025  55.3869677  28.5265708  15.8172011  21.1496711   8.2939446
  16.5515780  20.5668855   8.1008548  15.7983363  21.2026930   9.2494887
  14.8356426   6.7648381   6.8969053  14.9773431   7.6910120   7.0927495
  15.0012910   6.3165843   7.7262789  25.7316494  15.4106116  34.9193001
  25.3022957  15.4374003  34.0642166  25.0584435  15.7012868  35.5345511
  12.6381230  10.5416429  12.8029048  13.4051824  10.7377458  12.2649503
  12.7819812   9.6457088  13.1076002  54.4755125  71.8554354  28.7181354
  54.1556454  70.9543848  28.6731386  55.3227615  71.7871237  29.1582894
  34.2864394  16.5013599  42.9480696  35.0053120  15.8926260  42.7780724
  34.6293497  17.3559368  42.6866436  40.0678396  18.4226239  13.7582827
  40.6531048  18.6307096  14.4865656  39.9489784  17.4742401  13.8099766
  33.8591576  30.6921840  31.7128301  32.9373884  30.8525372  31.9149709
  34.0019155  29.7773004  31.9553995   9.2138243  53.4890223   4.1170931
   9.1940528  52.7231121   3.5433123   8.5735047  54.0900898   3.7363848
  17.2850299  25.0918126  12.1340787  18.0582809  25.0412703  12.6960027
  16.7721915  25.8140969  12.4967587  16.7816043  52.8132629  43.9175892
  17.2472215  52.0399618  43.5990906  16.1585891  53.0213690  43.2213354
  10.3359592   7.4912536   7.8220248  10.2157998   6.7001629   7.2966969
  10.9836578   8.0038673   7.3383456  34.4279838  33.5779047  33.8707852
  34.0164852  32.7275562  34.0250850  34.1164613  33.8411283  33.0048180
   3.7655175  75.5151558   9.0141696   3.5013002  74.5965385   8.9635795
   3.1626821  75.9031916   9.6484035  80.9933567  55.1827240  31.2588358
  81.8164253  54.7989321  31.5612984  81.2408829  55.7151842  30.5028963
  63.0910349  65.9874249  29.2179871  62.2458792  66.2916660  28.8872576
  62.9307652  65.0835800  29.4892979  64.6282339  59.7089958  17.1221602
  64.8877239  58.9998150  17.7103472  63.6867762  59.5865440  17.0000875
  66.3486576  20.0309372  66.6565228  66.0132885  20.8958626  66.8924618
  67.1658134  19.9486089  67.1481705  64.7822428  50.0158262  40.2641916
  63.9016724  50.3841496  40.3360844  64.6632099  49.2055035  39.7687769
  59.5753050  68.5196209  33.3095121  59.5546293  67.7770424  32.7058697
  59.5023060  68.1242514  34.1781807   5.0138450  74.7265673  19.5130730
   4.5089495  75.5307007  19.3919170   4.7675693  74.4182253  20.3851438
  12.0291686  17.6143193   6.8263954  11.2766373  18.2048750   6.8606389
  12.7129447  18.1227160   6.3902611  25.0143313  12.9912901  13.1512082
  25.5637312  12.5479162  12.5048232  24.9185944  13.8818622  12.8136492
  25.4601264  13.8178182  41.3222122  26.1110544  14.4978142  41.1486387
  24.9024606  13.8159120  40.5442429  23.2675886  67.3993492  10.4265726
  23.5751319  67.3195648  11.3295031  24.0007091  67.7986383   9.9582410
  22.6934910  35.2205133  44.7468185  23.5990620  35.1646495  44.4417667
  22.5050473  34.3503571  45.0983047  44.7104025  20.8348775   1.7083913
  44.8375893  19.9788916   2.1174674  45.5971146  21.1607742   1.5542080
  16.0893583  53.2538128  48.7689924  15.7165635  52.7445269  48.0493498
  16.4351356  54.0421915  48.3505106  28.6356759  19.6975350  31.2917113
  28.3495355  18.7984204  31.1306238  29.3912029  19.6080101  31.8725681
   7.7394778  46.4256239  28.8718605   8.5416389  46.5036201  28.3554435
   8.0398870  46.1687613  29.7436452  14.6712017  19.7718787  51.4169264
  14.9199724  19.7269154  50.4937124  14.9059153  20.6602216  51.6852379
  51.9794798  41.7095232  48.0900621  51.1968374  41.1625051  48.1569290
  51.7239332  42.4227476  47.5050497  11.4711463  18.7359953  43.3458042
  11.2077379  17.8171754  43.3969784  10.9619546  19.1696286  44.0305805
  46.3680840  23.6028934  63.1212902  46.3959932  24.5071793  62.8086853
  47.1848297  23.4924340  63.6080694  46.8331671  56.5964556  15.3255582
  47.5515318  57.2149992  15.4581666  47.2515106  55.7357359  15.3452241
  75.7370663  33.7264800  60.5963326  76.1592960  34.1382194  59.8423958
  74.9306965  34.2266870  60.7219934  21.4341235   4.1360417   1.1582159
  21.8453836   4.0216807   2.0149650  21.8397355   3.4671152   0.6066288
  15.9682250   9.9254644  19.2927802  15.0864470   9.6922636  19.5831561
  15.8546090  10.7503796  18.8207221  35.9195911  11.9377042  66.8516271
  35.6306612  11.8016340  67.7539782  35.3288662  11.3973666  66.3269293
  46.8780136   2.3421639  17.1192515  46.5179443   1.6448900  16.5711701
  47.4631357   2.8265932  16.5368521  80.9698200  35.3875852  29.3608332
  80.7663631  35.9900689  30.0762725  81.1545563  34.5544887  29.7944880
  37.3817801   9.9275911  21.3765621  37.2633862  10.1017272  22.3103142
  38.3150768  10.0736701  21.2221265  51.0384274  40.0895023  52.4278164
  50.5090046  39.5786905  53.0401993  50.4265642  40.3447628  51.7373896
   6.4175832  33.1994510  47.3272610   6.7797297  33.9896011  46.9263315
   7.1840680  32.7069974  47.6208973  78.9797592   4.4467032   7.2412157
  79.0807056   5.3128487   6.8464571  79.1441536   3.8355568   6.5230882
  80.7889080  60.9299088  29.3469429  80.6747913  60.1927137  29.9467325
  79.9178410  61.0753393  28.9777231  58.7383890  75.8166981  25.4349685
  59.0955830  74.9566269  25.6561494  59.3991518  76.4369202  25.7431078
  57.0882940  76.9287825  37.7549815  56.4746761  77.4621534  37.2497940
  57.0364761  76.0606337  37.3551559   3.4358934  12.0677602  62.1339178
   3.3024877  11.1975634  62.5096750   3.8129392  12.5817513  62.8479815
  79.6508121   9.9152917  24.2576361  79.4063044   9.7357118  25.1654911
  80.6015110   9.8054069  24.2394161  17.5856042  25.3201127  32.1455693
  17.5171387  24.9071312  33.0063772  18.1745541  26.0622215  32.2821140
  81.0544682  73.1014442  44.7180414  81.4838600  73.6327600  45.3885365
  81.1318398  73.6189175  43.9165068   9.7611427  25.6391954  24.6386075
   9.0076411  26.1059928  24.2772675   9.3834043  24.8740792  25.0723624
  70.5575991  55.1937866  29.8779750  70.4958534  54.2522001  30.0386906
  70.5290651  55.2764416  28.9247775  24.5190096  27.5863624  16.5911591
  24.2604971  28.3816743  16.1254561  24.2774200  27.7530646  17.5022447
  61.8880844  73.2445574  18.3505356  62.3247623  72.3930311  18.3293819
  60.9873915  73.0584908  18.0852747  12.4721575  47.1493387  54.1520071
  12.8610778  47.3412228  55.0053263  13.0817151  47.5302219  53.5198689
  79.5008087  50.0170374  26.5687108  78.7500000  50.5017519  26.2258244
  79.9859476  49.7445631  25.7898498  72.5988388   9.6470612  63.8258934
  72.7972794   8.7125272  63.8850498  73.1945896   9.9762839  63.1528950
  10.7372808  12.7631640  42.9900360   9.8444444  12.6881301  43.3268547
  11.2808263  12.3431051  43.6566257  82.2945960   8.8080132  24.7438121
  82.2740838   8.1134319  24.0855074  82.7806821   8.4294355  25.4763651
  19.1388786  10.6456375   8.1451732  18.2294953  10.9399092   8.0936158
  19.6441579  11.4493978   8.2672179  19.5443678  27.7259135  10.6718755
  19.0550435  27.1941185  10.0441897  20.1351690  28.2508278  10.1318288
  66.1147738   4.9982804  40.5859518  66.9654799   4.7055227  40.9127998
  65.7633209   5.5448204  41.2888050   5.8407706   4.8723802  38.2141852
   5.4570091   3.9997464  38.3006096   5.4181403   5.3889197  38.9003348
  31.5137768  40.9640169  24.0576315  31.7393422  40.9616089  23.1273913
  32.2965860  41.3014650  24.4930291  37.6679039  14.3675792  62.5170469
  38.5838866  14.6383023  62.4544621  37.5149322  14.2551970  63.4552383
  62.1506548  47.9181623  53.4904957  61.4102745  47.6115704  54.0140104
  61.8156242  47.9445982  52.5942326  42.0137548  11.5689826  11.7500532
  41.2010574  11.6586518  11.2523437  42.6849890  11.4110124  11.0861838
  28.2055950  15.8400774  45.6206799  28.5076213  15.1667655  46.2303257
  28.6648965  15.6466532  44.8034525  12.2222793   9.5723462  63.0552769
  12.2792184   9.1617709  62.1924829  11.4992356  10.1947057  62.9771185
  52.0718479  18.3576357  38.4203696  51.9779491  17.4993110  38.0072212
  52.2301722  18.9580595  37.6919079   6.1285472   4.0110984  33.7710738
   7.0739347   4.0213779  33.6215091   5.9985971   4.5898941  34.5222998
  28.5930681   9.3597680  39.3831491  29.4643426   9.7523683  39.3285918
  28.1062627   9.7557050  38.6603165  64.6865702  21.3506484  34.3368053
  65.4241991  21.3193154  34.9460316  63.9153147  21.2152982  34.8873329
  74.3476343   2.0441404  14.7105980  74.3492556   2.2400174  13.7736547
  74.3510294   2.9022571  15.1346922  79.6077824  64.0190506  21.5034699
  80.2625179  64.4664431  20.9673786  79.0507460  63.5645533  20.8715105
  31.2553501  21.2924623  10.0758994  31.0750246  21.6806531  10.9320676
  32.1718144  21.0204959  10.1244605  13.6962807  36.8189740  42.3610353
  13.1675947  37.0275927  43.1312275  13.5133517  35.8954978  42.1879387
  28.1068158  11.7624521  26.2178707  27.3862171  11.1373436  26.2966466
  28.2844019  11.8060899  25.2783012  14.0573025   3.4535667  19.3161607
  14.6870363   2.7563965  19.1328025  14.5437610   4.2629597  19.1597199
  45.7399225  41.1257553  52.3293161  45.2768660  41.5459156  51.6045523
  46.5743494  41.5917158  52.3826504  15.8657205  22.9371428  33.8694406
  14.9571037  23.1366944  34.0948844  16.2756097  22.7112770  34.7044301
  59.9802351   8.9830792   9.6971518  59.1228199   8.5730022   9.8107731
  60.5289364   8.2920778   9.3261099   0.5960032   9.7556752  38.0601454
   0.9626798   8.8722634  38.0970693  -0.1639228   9.6756750  37.4836516
   5.0918269  21.8181252  41.3530445   4.9343744  20.8826566  41.4808702
   4.2178655  22.2082496  41.3380432  27.7135777   6.0969770  23.5540462
  28.1082273   6.4407980  22.7526283  27.0703268   5.4571879  23.2488751
  12.7708769  72.0749283  33.8720131  12.7742052  71.3219881  34.4630313
  13.3872199  71.8381500  33.1789851  61.9942331  75.0149202  20.3837872
  61.9030428  74.2514467  19.8136795  62.7832937  75.4559946  20.0690341
  39.2696595   6.7827630  66.0396528  39.3863487   7.1399522  66.9200087
  38.4948754   6.2248814  66.1082792  24.3608236   2.0483330  60.0003290
  24.5552802   2.5880414  59.2340803  23.4626794   1.7483845  59.8603249
  25.2769494  40.5500889  15.4254031  24.8179364  40.9051323  14.6641648
  25.5471683  39.6727157  15.1544285  44.1912508  17.8982043   8.0842960
  44.8932552  17.8804958   7.4338287  43.4248114  18.2070589   7.6011747
  46.8283939  16.4220238  60.2074337  47.7649117  16.6149831  60.1634693
  46.4103413  17.1629345  59.7686672  10.8090222   6.6119504  28.0010200
  10.4714501   6.7459476  27.1153998  10.1221895   6.9537950  28.5734129
   8.6609244  21.5045762  13.2327724   7.8202105  21.1270976  13.4915018
   8.8462955  22.1600151  13.9052820  54.1460657  68.4188414  50.9524918
  53.6261320  67.6456976  51.1719084  54.2390823  68.3826494  50.0005102
  11.8344212  74.3955898  45.5390167  11.7824495  73.4821558  45.2576542
  11.5734184  74.3778086  46.4597750  81.6485310  26.5006638  48.1541634
  81.9257736  26.9319797  48.9624596  81.3957500  27.2188258  47.5740099
  21.0624504  29.7543931   5.7860994  20.3626752  30.2169800   6.2471420
  21.8243670  29.8402739   6.3591081  62.7499628  59.4256735  13.2418299
  61.9012165  59.4858980  12.8033900  63.0330753  60.3346014  13.3415210
  28.1816268  34.0201974  18.9255762  29.0806437  34.0879369  19.2471576
  27.6389480  34.2310286  19.6853650   3.2642025  22.8629565  37.4448705
   4.0726775  22.5537276  37.0362425   3.5481808  23.2566309  38.2698607
  18.3857810  39.8520517  38.2508707  19.2706084  40.0293684  38.5700417
  17.8158700  40.0821304  38.9846945  26.6509557  44.0022850  31.2233734
  26.8160844  43.1739521  31.6737318  25.8701921  43.8362074  30.6951141
  14.6278918  47.1308613  26.7795587  13.9564407  47.0131063  27.4515104
  14.9797606  46.2523317  26.6360211  77.1202803  64.6259356  33.7292266
  77.5320959  65.4900122  33.7261724  77.6742935  64.0945482  33.1574464
  47.6671171   6.9247854  58.2312775  48.0790710   6.0678446  58.3416224
  46.9157791   6.7578518  57.6621914  14.4119430  21.6970325   0.5221608
  14.5992458  20.8304453   0.8829609  14.3424785  21.5536094  -0.4216807
  31.1438990  58.2548094  20.7487273  30.2130246  58.0323219  20.7344913
  31.3955617  58.2913494  19.8259258  13.5299635  47.0903587  49.8382187
  13.4512877  46.1366844  49.8615742  14.4535017  47.2591352  50.0248289
   0.5143035  40.7692003   9.4748795  -0.3098231  41.1085272   9.1257316
   0.8276147  40.1634264   8.8032365  35.9098411  45.0911045  28.0238771
  36.4257360  45.3164864  28.7980127  35.0137949  45.3376865  28.2530737
  38.0697131  40.1100063  14.6890044  38.8581371  40.2805805  14.1737127
  37.4924660  39.6329832  14.0927935  25.8786321  29.3164515  13.3439481
  25.0523615  29.3227792  13.8271344  26.2382507  30.1940989  13.4729409
  16.0679233   1.1348449   9.7166592  16.6503131   1.3138881   8.9784193
  16.2223589   0.2135848   9.9256116  42.4013996  63.6886263  60.0768518
  42.1219587  63.0916119  60.7709122  41.8622160  64.4696665  60.2012873
   0.6575734  57.3226500  27.4438286   1.0495692  57.4756670  28.3035707
   1.3130364  56.8113375  26.9693160  29.1064835  19.7968841   9.2672390
  29.9552035  20.1661348   9.5112878  28.5374904  19.9916518  10.0119150
  24.3900156  47.0084190  29.0356517  25.0877619  47.0231771  28.3805466
  24.8329759  47.2021961  29.8617697  19.7770119  52.2309351  22.2013164
  19.1133702  52.6315641  21.6397929  19.4288611  52.3247623  23.0880070
  73.5402155  29.2330503  19.2427075  74.3494940  28.9750600  19.6840048
  73.8082886  29.4257641  18.3442473  23.0104971  22.3134112  50.8117104
  22.1535158  21.8972731  50.7187462  23.3597827  21.9620657  51.6307259
  14.7451043  77.6629210  12.3504770  15.2626956  78.0721283  13.0439341
  13.9565933  77.3494101  12.7934110  60.8881950  60.9917212  18.3822417
  61.5957546  61.5034294  18.7743449  60.9150648  60.1532793  18.8432467
  31.2997961  21.2801194  34.8027420  32.1493864  20.8508825  34.7018385
  30.9168458  20.8735228  35.5800843  30.5722928  14.3479824  16.8821156
  30.5433202  13.4230638  17.1269000  30.3417611  14.3572164  15.9531367
   1.9796473  17.0145237  48.5303020   1.6913316  17.7701426  49.0423059
   2.4854816  16.4859140  49.1475010  11.2680435  49.4506979  37.5790381
  11.2777865  48.4948492  37.5292015  12.0716715  49.7218752  37.1353316
  75.0486231  38.7090969  36.4916825  74.3299723  39.1775107  36.9163752
  74.6274042  37.9676485  36.0568690  11.2702549   6.2223899  31.5089560
  10.9090602   5.4973871  30.9989166  12.2082877   6.0378271  31.5565157
  49.1794443   3.7446016  33.6374712  48.7312984   3.3481246  34.3846035
  49.2611837   3.0332956  33.0021811  19.1241813  29.1488004  38.0634975
  19.4152832  28.5858250  37.3461771  18.8706028  28.5404539  38.7576485
  31.6941237  19.6007800  39.8413062  31.9830823  18.8938820  40.4183912
  31.6059804  20.3597522  40.4178667  29.6189308  45.8080101  17.6419425
  30.0992751  46.6227961  17.4948883  29.5052075  45.7650375  18.5913897
   8.9060980  54.5784569   0.1292532   8.3849216  54.1369724  -0.5413430
   8.3103824  54.6718121   0.8726506  22.0107436   1.4176786  28.8697505
  22.6895308   0.7874393  28.6283445  21.8621469   1.2640160  29.8027778
  78.4742308  57.0709896  29.4974327  78.1707907  56.3210773  30.0090790
  77.6781607  57.4338341  29.1090393  28.4946036  14.6047974  35.5441046
  28.9138055  14.5391619  34.6860862  27.5845456  14.8287809  35.3495407
  10.5998778  10.1126385  45.8294868  10.4796231   9.6318763  45.0105619
  11.5034211  10.4264438  45.7925367  35.3108597  14.4604385  33.4935951
  35.3437901  13.8929534  32.7234602  35.2272296  13.8572943  34.2321444
   3.1628484  33.1715441  22.0523357   3.1335855  32.2464490  22.2964096
   2.3712720  33.3069873  21.5314770  34.1832066  27.2168398  28.8538623
  34.8661160  27.7450228  29.2672515  33.5464120  27.0603681  29.5511723
  24.0467787  61.6791344   3.7241998  24.3912482  60.9564114   4.2488348
  23.3384228  61.2877035   3.2130793  71.5821838  72.3850012  29.1857934
  72.5112581  72.4290323  28.9597178  71.4859343  71.5487480  29.6414733
   4.5318609  17.2322357  14.4960618   4.9920490  17.4175584  13.6774564
   4.1053417  18.0584514  14.7233975  47.5372171  55.3428936  19.7991204
  48.3760214  55.6533098  20.1401186  47.7699375  54.6333933  19.2002165
   6.9848317  10.5566180  40.1471996   6.9688672  10.6279218  41.1016035
   7.5529969   9.8063409  39.9725413  28.7930679  15.8798850   1.3771427
  29.2880750  15.6412137   0.5934102  29.3214321  16.5589499   1.7965867
  44.4695854  12.9110026   7.9089445  45.1452827  13.5304058   8.1846374
  44.4436264  12.2579265   8.6082655  65.7648182  54.0808916  19.5163941
  66.4689398  54.6361065  19.1814566  64.9609184  54.5329857  19.2602980
  24.0995479  11.4238107  62.8873491  23.5248160  10.6585109  62.8722429
  24.6454453  11.3288248  62.1068335   9.8611951  50.2379608  49.2291069
   9.3091488  50.3632689  48.4572458  10.3396368  51.0622549  49.3177652
  36.7105508  26.3762140  41.9999886  37.0776510  26.2320638  41.1278105
  37.3637986  26.9126463  42.4491405  56.9579029  67.3517752  63.3712673
  57.5296926  66.5873384  63.3010769  57.3014021  67.8399086  64.1195774
  12.6764417   0.4183335  24.4932127  13.4862876   0.1101231  24.8998904
  12.3221552   1.0530318  25.1160049  40.8657837  26.6891360  56.2565947
  40.8312798  26.9234300  57.1840334  41.7512083  26.9276595  55.9820795
  77.0702028  10.1303375  18.8253343  77.1608543  10.8652866  18.2188153
  77.0670176  10.5347514  19.6929002  25.2969599  25.6857324  56.6488075
  24.7966480  26.3864231  56.2305355  25.6554365  26.0870576  57.4404335
  16.0623240  37.4997830   3.1804550  15.7138515  37.2265887   4.0290803
  15.5247152  37.0343328   2.5397009  38.3495069   5.3196156  48.8669825
  38.4904909   4.4921800  48.4068680  37.4889827   5.2232099  49.2749453
  47.1995926  23.6009693  16.6442668  47.2655392  22.7802062  16.1561799
  48.0657434  23.9997101  16.5604854  27.2180915  37.9286575  36.1249471
  26.8820095  37.9665351  35.2294898  28.0339551  37.4331427  36.0538054
  23.6093616   6.9587070  11.6756177  24.3692279   6.7919898  11.1179078
  23.6645961   7.8915143  11.8831050  58.3998489  22.3291230  24.1675949
  58.3496857  22.8959894  24.9372578  58.6737919  22.9112387  23.4588432
  33.2262874  17.1095574  21.7147040  32.9577494  17.8961194  21.2399006
  34.0358305  16.8346298  21.2842536  68.5757160  14.2209733  64.9924660
  69.2834473  13.7792623  65.4617596  68.3453798  13.6190391  64.2847586
  25.5687642  31.8666220  32.2162676  26.2673068  32.0952415  32.8294563
  24.7613287  31.9975424  32.7133989  22.6210070  73.7293530  40.5774975
  21.9186115  74.0517235  40.0127363  22.2666168  72.9306555  40.9682941
  16.2549329  75.0683212  60.6351805  16.8240058  75.1433468  61.4011812
  15.7891953  75.9038353  60.6000519   5.2245885  68.0793667  12.6843321
   5.1246965  68.7984943  13.3081198   5.1055276  67.2882080  13.2098103
  36.3429284  76.6587019  64.0728188  37.0513678  76.4387512  64.6777678
  35.7037854  75.9552908  64.1865683  61.1151361   2.4667998  35.0479722
  61.6171551   2.7228308  35.8217001  61.4101171   3.0657640  34.3620706
  36.5845275  45.7201719  30.4423714  37.0496988  45.1840544  31.0845757
  35.9653068  46.2328815  30.9619164  68.7666702  77.6957512  29.1090441
  68.4157228  78.3939314  28.5562253  68.0751181  77.0341969  29.1272664
  76.4101982  63.1290150  38.9055872  76.6902494  63.1270790  37.9902744
  75.5280638  62.7579117  38.8869452  20.8829284  12.8505194   8.2892495
  20.2416301  13.4661126   8.6442345  21.5841269  12.8329754   8.9405906
  34.2080140  45.2476025  20.5383825  33.3342361  44.9172735  20.7472515
  34.6780682  44.4850159  20.2011299  58.3387327  51.8150568  11.2145317
  57.7758312  51.0739756  11.4385366  58.7048054  52.0994902  12.0519781
  40.3182602  25.8246040   4.2015320  40.1569939  26.6972327   3.8427219
  40.3310490  25.2496243   3.4363744  14.8559499  27.1556973  10.5175364
  14.0056276  26.9425726  10.9019351  15.2637053  27.7465296  11.1506927
  40.0783253  15.9617662  30.7801390  40.9361982  16.0698116  31.1907625
  39.8807907  16.8213916  30.4083109  33.5078740  29.5175147  12.4048424
  33.3925176  30.4465175  12.6045346  33.9332628  29.1563797  13.1825686
  71.7087412  20.2155232  47.9850101  71.0677814  20.3599334  48.6811066
  72.5050354  19.9486077  48.4442568  21.1897206  73.3874655  51.3544607
  20.7638907  72.7122450  50.8262777  21.8568635  72.9160118  51.8533468
  67.2227335  63.3965492  37.6693892  66.8456411  62.5912237  37.3151541
  67.4950933  63.8931227  36.8977261   5.3452033  75.0123549  34.7636127
   4.8154986  74.9548531  33.9684153   4.7058424  75.0675297  35.4738283
  60.0774813  76.3294983   2.0790973  60.9334278  76.1290646   2.4578014
  59.8939610  75.5914402   1.4978760   8.9567637  65.8109474   9.7849578
   8.1360573  66.2504959  10.0073755   9.4000685  65.6920433  10.6249416
  34.7003317  28.4110737   6.1817867  34.5862460  28.8310122   7.0343524
  35.6488252  28.3720160   6.0590422  24.8724794   1.8477030  56.1073017
  25.1211810   0.9723793  55.8103371  24.1031432   2.0690565  55.5825567
  42.3785257  64.6988964  21.3797879  42.3412561  65.6241274  21.6222715
  42.9866409  64.3107319  22.0088792  35.1515460  24.5088482  17.8952610
  35.0086188  23.7168765  18.4135127  35.0418901  24.2243695  16.9879138
   2.0248979  51.5473270  18.7300241   1.5124887  50.9263086  19.2477179
   1.6859268  51.4540195  17.8397298  11.8128109  56.7159176   7.9477835
  11.8178511  56.9443703   7.0182592  11.9242084  57.5519037   8.4004956
  33.4694982  15.8393550  30.9095120  33.9842391  15.7264864  31.7085958
  32.5641990  15.9003413  31.2143850  16.6891158   1.0420678  66.5630770
  16.1938763   1.7906436  66.2305069  17.5344181   1.0970100  66.1173439
  50.7186699  66.4474773  20.3737569  51.0007143  67.3572493  20.2788854
  51.3249350  66.0742474  21.0135746  28.7191463   7.4069160  21.1255550
  28.5343075   8.3453107  21.0870528  28.2681274   7.0425200  20.3639579
   4.5939982  11.6039383  36.3002014   3.9640605  12.1031308  36.8200254
   5.4284376  11.7261827  36.7529702  12.3024058  50.0180769  26.9497728
  11.6432440  50.1930571  26.2781191  13.1088471  49.8608208  26.4586973
  73.4094381  46.2979984  13.9706922  74.0401411  46.8879223  13.5578501
  72.6412487  46.3317108  13.4006214  60.2650690  26.0191703  17.9417253
  59.9738741  26.9120693  17.7568769  60.0584364  25.8865523  18.8668990
  39.1969132   8.1165946  39.3336630  39.0316367   7.2359610  38.9969134
  38.6141491   8.6806911  38.8253188  76.9503117  59.1175413  66.0291958
  76.0192013  58.9148808  65.9386873  77.0856142  59.8790407  65.4652405
  34.9319434  29.1101408  26.9537020  34.9282432  28.3688354  27.5592470
  34.0143633  29.2203927  26.7044616  40.8712387  21.1808896  46.4731598
  40.6139040  20.8596039  47.3373318  40.1770306  21.7928767  46.2286711
  49.8784304   3.7623599  11.5340829  49.4052172   2.9316759  11.4864647
  50.5444098   3.6204013  12.2068012  16.4117694  49.9575520  43.3435726
  16.0459507  49.4083405  42.6501989  17.3509312  49.7735929  43.3244371
  39.0260553  32.1992779  15.9367681  39.9376869  32.0825744  15.6693041
  38.9906120  31.8479061  16.8264389  78.4293222  66.2563372  49.2130518
  78.5060167  65.6150055  49.9194860  79.1440725  66.8731403  49.3708849
  32.3379087   4.9830955   7.4102277  31.7638206   4.2927828   7.7420765
  32.1877694   5.7229578   7.9986942   9.3235791  34.3723750  17.4497604
   9.4422197  33.8551736  18.2464147   8.8470095  35.1507497  17.7382886
  55.7242203   7.0633227  26.4190841  56.6269588   7.3771185  26.3659239
  55.1990843   7.8585988  26.5085387  -0.0430141   5.7225776   7.4388629
   0.3747048   5.4930425   6.6087711  -0.3211341   6.6312295   7.3238331
  11.5364218  29.6385717  34.1390586  11.8559754  28.7686610  34.3785906
  10.5893588  29.5900702  34.2692518  14.0498781  57.4103117  67.2341585
  13.9314890  57.0507812  66.3549805  14.4639480  56.7028904  67.7284622
  21.1136508  31.8535781  11.7220771  22.0522332  31.6815424  11.7975926
  20.7091355  31.2548470  12.3498654  17.0227277  70.2744389  11.3584936
  17.6924253  70.5165958  10.7188869  16.8944490  71.0654020  11.8820858
  50.2404785   0.4867667  33.8512516  51.0377026   0.9839660  33.6683440
  49.5764971   0.8826500  33.2867670   7.0008332  17.8340805  16.0294616
   6.2534714  17.7419317  16.6203845   7.5656813  17.0905197  16.2399232
  57.5509024   2.4680321  43.5250330  57.6064062   2.1297082  44.4187260
  56.6275120   2.6929063  43.4109783  49.7721720  11.4404869   4.1679877
  49.6987820  11.9589996   4.9692303  48.9310741  10.9891176   4.0969139
  51.9440317  16.2756717  36.6100240  51.9839621  15.4680288  37.1222234
  52.3191452  16.0399675  35.7615161  12.0284140  25.8061910   9.1370249
  11.6995382  25.2074480   8.4665203  12.5203526  26.4660859   8.6483866
  53.3068466  77.0954323  17.4831426  54.1099834  76.6562176  17.2033346
  53.4487295  77.2861576  18.4103572  57.3683882  72.4138165  33.4267688
  57.8524590  72.2613716  34.2383504  56.9948006  71.5604210  33.2068110
  25.7904124  20.9755540  20.1669788  25.9684753  21.4200687  19.3381667
  24.9691367  21.3600779  20.4733777  37.3810840  42.2053003  65.9714508
  37.9894519  42.3790932  65.2531767  37.7729058  41.4714670  66.4449406
   9.6044505  68.1070042  58.7856436   9.2109817  67.3771811  59.2639446
   9.4968152  68.8599873  59.3667316  16.2979090  16.7976880  11.9850290
  15.6209934  16.1212826  12.0072663  16.8020833  16.6584277  12.7866805
  24.6554112  38.9295173   9.1745520  24.8843741  38.1131625   8.7302852
  25.4218912  39.4903064   9.0551478  33.0111122  62.1762705  60.6946659
  33.3367729  62.9062271  61.2212992  32.1193242  62.4309301  60.4578257
  51.2246752  69.0544319  14.7505903  51.1258173  69.6272421  15.5110836
  50.4943991  69.2886257  14.1778052  65.7058573   2.5449643  10.0300384
  66.0635853   2.9475507  10.8213592  65.4766273   3.2847697   9.4675684
  58.2374191  75.4451275  45.9996510  58.4503698  75.5104828  45.0687265
  57.5796509  74.7513342  46.0467482  81.4289665  55.7305431  59.1034889
  80.6827927  55.6275320  58.5128689  81.3284016  55.0244331  59.7418642
  55.2035379  74.0714073  45.3528118  54.6213102  73.9476871  44.6031904
  54.8944712  73.4404039  46.0028458  81.5637398  72.9555035  34.5730829
  80.8683300  73.0638075  35.2218580  82.3644543  73.1997871  35.0372028
  40.6217623  40.0891638  13.6236262  40.6995440  40.6531668  12.8541541
  40.9060717  39.2275119  13.3187437  24.2110229  16.9831491  55.8082819
  25.0800586  17.1607828  55.4484844  23.8833880  17.8412116  56.0777569
  40.8472204  33.5828948  10.5481625  39.9211907  33.5095596  10.7790792
  41.1388731  32.6779461  10.4375386  79.6741533  39.0337157  62.8549910
  79.7486734  39.9621415  63.0756760  78.9354372  38.7218213  63.3777237
  71.1951637  10.9446728  22.0971894  71.3827896  10.0352871  22.3296666
  72.0451450  11.3090014  21.8501639  75.9947252  15.5030882  25.6137109
  76.3518953  14.8579264  26.2239766  75.0653458  15.5549872  25.8368444
  33.7395000  57.4322748  33.7967873  34.3448353  56.9887686  34.3910098
  33.8060594  58.3573294  34.0335917  21.2220311  17.8987873  44.2569447
  21.3785100  17.9992580  43.3179808  20.2706337  17.8281951  44.3350029
  25.3109527  13.2985485  22.8133130  24.6546841  13.9931595  22.7580166
  24.8575997  12.5745463  23.2451987  40.5086374   9.2262393  16.4755785
  41.2619591   9.7843492  16.6685760  39.9647260   9.2778277  17.2615373
  22.8369331  21.5153432   7.7452427  21.8964505  21.5765429   7.5779647
  22.9504657  21.8952441   8.6164582   5.0182325  60.3902912  17.3351836
   5.4906631  60.3354883  16.5044987   5.1896417  61.2778044  17.6501048
  12.5367308  37.9159951  17.9718113  12.9711950  37.2286868  18.4768665
  12.5082803  38.6670947  18.5644937   6.2285119  12.7532661  34.4822693
   5.8221221  13.6051905  34.6413398   5.5933225  12.1190703  34.8147798
  41.6786098  47.0702839  54.9571371  41.3699102  47.8022575  55.4911327
  40.8800030  46.6154003  54.6896648  26.0993648  24.8439717  63.0888367
  25.3764677  25.4008484  63.3778667  26.8869090  25.3468919  63.2963848
  42.9449463  48.1675339   7.7100456  43.1315994  48.2206106   6.7727220
  42.0582867  47.8100586   7.7578300  31.0637808  48.0214596  31.7756009
  30.2821994  47.7044725  31.3229632  31.1316347  47.4672270  32.5530672
  28.4014487  46.9996595  38.9644861  29.0575051  47.1161699  39.6516871
  27.9972124  47.8622103  38.8705444  16.1850524  58.8860846  10.7292938
  15.3911996  58.3546019  10.6696761  16.4705038  58.7891722  11.6377854
  11.7875540  35.8614063   4.7030830  11.3231778  36.3112998   3.9972615
  12.1567249  35.0818300   4.2881075  81.0524750  33.5735893  22.1757460
  80.1028633  33.4640598  22.2254658  81.1854172  34.5213771  22.1917677
  14.5194829  51.9146252  58.2335281  14.8295510  51.1639690  57.7269650
  14.3425655  52.5893259  57.5780010  41.1488628  35.6624389   2.0062217
  40.6121206  35.9204936   2.7555859  41.2129927  36.4549708   1.4732943
  73.9658022   8.2243866  12.3363864  74.2133141   8.4380394  13.2360101
  73.3235836   8.8934165  12.0993483  42.0065022  34.0380597  34.5207810
  41.0597944  34.1485643  34.6089292  42.3799276  34.6859336  35.1183105
  20.2714038  68.3837795  27.7482796  20.8554029  68.7543249  28.4100008
  20.7405043  68.5009909  26.9221807  22.6515055  42.7481031  11.7351329
  22.6090884  42.1278238  11.0073364  22.7947450  42.2014284  12.5077021
  24.3893647  50.9961510  33.5349298  24.3571258  51.9083214  33.2466006
  23.4812117  50.7794094  33.7459207  12.7452922  58.1541061  61.6069889
  12.3663962  57.2783756  61.5310907  13.3655131  58.2105541  60.8800983
  75.3309917  21.8111086  12.8225851  75.2986431  22.7534628  12.6577973
  76.1632824  21.6755986  13.2755339  32.3854232  30.0700235  25.5488157
  32.3107052  29.1949105  25.1682544  32.5412297  30.6446409  24.7992992
  21.7012978  54.3322849  42.0533657  21.9458532  53.4376860  42.2902536
  20.8081746  54.4317007  42.3830366   3.5079876   6.4144605  62.3597002
   4.2012337   6.9625604  61.9919682   3.9197588   5.5595058  62.4851131
  20.5656672  37.5430727  35.2475214  20.3235531  36.7452788  34.7772646
  19.9266398  37.6059389  35.9573984  45.2663136  75.0390911  15.0429916
  44.8746824  74.5318270  15.7540059  45.7924223  74.4039249  14.5571828
  27.7923465  19.5659530   1.3155070  28.4810185  19.8448479   1.9189796
  26.9921422  19.5839572   1.8404639  27.5107789  37.1064234  19.2103517
  28.1169677  37.8467059  19.1829908  27.4309063  36.8284082  18.2979047
  65.9596777  17.8193367  41.9297123  66.2431240  18.3140135  42.6985979
  65.0490093  17.5899088  42.1148586   6.6200095  23.9070535  42.7666044
   7.2105777  23.4624553  43.3747101   6.1852098  23.1977391  42.2932625
  46.0664701  53.4433079  33.0673051  45.2089596  53.1788492  33.4004259
  45.9626007  54.3688822  32.8465033  14.2835128  53.8261223  33.7290931
  14.3237400  54.7546434  33.9581394  13.6933839  53.4444714  34.3789554
  27.1595120  22.7060986  34.8193073  27.1190214  22.0039582  34.1700077
  26.2441349  22.9292750  34.9881434  29.4113302  23.2286000  26.1460185
  29.6470475  23.0852818  27.0626044  29.3191648  22.3481584  25.7819295
   6.7041510  48.8232803   4.5773423   6.4351928  48.0521584   5.0766033
   7.1781558  49.3642044   5.2089691  34.0092707  35.6970143  19.2693460
  33.4252810  36.0441232  19.9436629  34.7517729  35.3396225  19.7563684
  31.8297815  36.2678719   1.3956839  32.0367956  35.5001521   1.9285829
  31.2257171  36.7780781   1.9351551  15.8982682  38.5360765  28.0091000
  16.5417099  38.8809776  28.6281776  15.1517522  38.2864523  28.5537410
  75.4271364  36.2196064   2.1990331  75.1832056  37.1077156   2.4597856
  74.7545815  35.6619287   2.5900525  18.3800268  42.1267939   5.8911067
  17.8510284  42.9125166   5.7531363  17.7462828  41.4501762   6.1294121
  52.5306368  75.2268171  23.4813929  52.6712799  75.1337767  24.4236207
  51.9416666  74.5070553  23.2549167  25.3553843  18.7458336  51.9200993
  26.2237954  18.6737621  52.3162079  25.1942039  17.8832519  51.5377331
  57.9651546  51.6216564  54.7196531  58.0695200  50.9276676  54.0687132
  58.8601494  51.8587732  54.9625397  27.0034099   2.5786021  25.6050682
  27.1634579   1.8081239  26.1500263  26.8648005   3.2897791  26.2305641
  60.3642988  42.5896597  50.3026962  60.4984379  42.9626369  51.1739731
  61.2447453  42.5207233  49.9335194  13.2756341  67.1799898  26.4888620
  12.4338472  66.7272758  26.4371204  13.7197566  66.9540024  25.6716013
  76.9972897  27.6247811  34.1518545  77.3514223  28.3404946  34.6796560
  77.2116709  27.8634429  33.2500148  32.3122859  61.8167353  34.6266270
  31.4404941  61.9049644  35.0118876  32.9114747  61.8994236  35.3684950
  74.2671251  61.8368101  39.1999197  73.9043379  62.0359612  40.0630283
  73.5180807  61.8925953  38.6065817  40.6754303  19.1430581  31.4638376
  41.1196041  19.5031846  32.2314644  41.3191748  18.5552692  31.0684466
  37.5043821  35.5288148  37.0244074  37.8640342  34.6437645  37.0841479
  38.1280732  36.0736942  37.5043559  10.3896260  27.1843719  27.4281979
  10.3446043  27.1989536  26.4721680   9.8170131  27.8993845  27.7058744
  10.1286447  25.1968265   7.1432382   9.3959647  25.2271914   7.7584541
   9.8885185  25.8161664   6.4540446  31.6906548  41.8039846  33.0845094
  31.4651251  42.6756382  32.7595758  31.2984085  41.7646313  33.9567614
   4.4435495   9.2447013  34.7105837   4.3816820   9.9726641  35.3290272
   5.2194792   9.4415557  34.1857839  32.6072335  42.0997953  39.8846650
  32.4690437  41.7410851  40.7612848  32.9054761  41.3534832  39.3647623
  80.1489258  60.5606985  16.9723570  79.4512033  60.2927446  17.5703704
  80.8013725  60.9760284  17.5363135  36.3365769  57.8528547   2.2460862
  35.9919596  58.5718632   1.7164631  36.5069580  57.1520710   1.6167215
  48.0793095  22.6911259  23.5485029  47.8114891  23.5951471  23.3834291
  47.8667927  22.2267389  22.7389264  32.9041743  34.9387169  31.5135050
  32.0399833  34.7203350  31.8623805  33.1860805  35.6950092  32.0280719
  13.1411064  24.9261856   4.2280594  13.7360120  24.4082713   3.6857659
  12.6375449  24.2766523   4.7187376  37.5772166  48.8359404   6.3829035
  38.0940461  49.2490625   5.6912047  38.2266545  48.4306860   6.9575596
   7.4137968  40.0772524  18.0619824   7.8176445  39.2096758  18.0407798
   8.1300604  40.6693125  18.2914734  33.3930206  66.2066507  27.6549292
  32.8049803  66.1497211  26.9018030  34.0651655  65.5468178  27.4844098
  30.4778624  72.4764156  45.6937838  29.9447608  73.1122637  45.2165747
  31.2656736  72.9611492  45.9399986  59.2123699  76.0061550  53.4125280
  58.7307119  75.6468344  54.1575909  59.6049213  76.8123770  53.7474108
  46.9420576  59.5136881   1.6944318  47.7768183  59.3535137   2.1346003
  46.4585257  58.6933851   1.7920774  43.3828306  54.1035128  12.3349285
  42.6507473  53.4921789  12.2539508  43.3866405  54.3515110  13.2594359
  80.6805897  47.6079702  34.6280146  79.9846172  48.0666637  34.1574264
  81.4874744  48.0305529  34.3337536  34.8275471  59.4504213  43.4067011
  35.2017093  58.7915850  42.8217459  33.9023542  59.2140865  43.4730196
  53.1736088  31.7252970  14.4265687  54.0053129  31.9415236  14.0049744
  52.7891397  32.5737143  14.6470392  19.6454716  76.7816973   6.1642331
  19.1594362  76.7250443   5.3415591  19.0017867  77.0902777   6.8019485
  31.5502238  18.8377655  28.2311320  30.9550667  19.5804703  28.1291175
  31.9490361  18.9668620  29.0916634  18.6473298  53.0762291  40.2464819
  19.0327728  53.9519739  40.2736378  19.1218805  52.6272678  39.5468616
  14.5146692  55.9789658  39.3607426  14.7549832  56.1681557  40.2677631
  13.6411643  56.3573456  39.2604899  25.8079028  30.4753447  27.2636342
  25.4021049  29.6110439  27.3310566  25.0750113  31.0732269  27.1165371
  26.6699457  30.6760049  58.3111525  27.0751333  31.0044718  59.1137505
  25.9089708  30.1798248  58.6127424   6.7613691  48.7465668  20.7773352
   7.2410053  49.3396664  20.1990485   6.5205485  49.2878389  21.5291762
  32.8047729  30.8302212  35.1700807  32.5377798  29.9566054  34.8841763
  33.0022526  30.7276201  36.1010528  35.8131146  39.2219949   6.6485727
  36.3218069  39.9176407   6.2319899  34.9037790  39.4272780   6.4313126
  18.1357038  43.1789494  35.9413576  18.6031365  43.7775707  35.3587842
  17.2708309  43.5750198  36.0479283  31.4434171  33.2697082  35.7330179
  31.2468100  32.4970484  35.2033234  31.5976357  32.9243731  36.6123295
  28.7503195  19.9842584  28.4799457  28.8712621  20.1252842  29.4189429
  27.8601289  19.6411669  28.4019732  41.3512325  40.9742212  29.3266869
  41.7647123  41.7761421  29.6463585  41.9720697  40.6225729  28.6886168
  82.2949982  41.5553808  13.8410473  82.3967743  40.9710693  13.0897462
  82.0898628  40.9722900  14.5719039  35.0136185   8.8047367  24.2073989
  34.3539071   9.3330312  24.6567512  35.7502699   9.4018143  24.0767336
  33.2008982  14.0769887  28.8221073  32.3019910  14.2249894  28.5283470
  33.4384418  14.8824656  29.2814660  35.5897236  38.0988407  21.6054606
  35.6280160  37.4277425  22.2869253  34.6811795  38.0830884  21.3045764
  53.2484293  13.9497674  40.1251602  53.5098028  13.9480841  39.2043400
  53.7733507  13.2560122  40.5244017  17.0117009  40.6889677  36.1436915
  17.2272623  41.5710068  35.8407569  17.6219022  40.5270243  36.8631768
  21.7692614  25.7403874  19.3855059  21.4807987  26.0534906  20.2428198
  22.2966027  24.9652433  19.5786178  11.6828942  32.5950408  35.7742167
  11.8820143  32.3554659  36.6793060  12.1783447  31.9689751  35.2461982
  27.4809742  55.0027132  10.3316188  26.8982744  54.3517542   9.9405354
  26.9661379  55.3906441  11.0392094  62.3880434  70.6159687  65.0548220
  63.3129978  70.8568001  65.0029945  62.0978785  70.5822563  64.1432858
  56.2090397  10.7348371   8.5212934  55.9194708   9.8270816   8.6127311
  55.5772972  11.1282873   7.9193580  39.4758415  31.9142532   4.3157887
  39.5291257  32.0817614   3.3748668  39.7028041  30.9888911   4.4075599
  19.0236270  33.1894398  14.5048821  18.1102693  33.0682802  14.2454052
  19.4535959  32.3709130  14.2571437  37.4143028  42.2785330  35.1652360
  37.5333428  42.9800510  34.5249748  38.0098915  42.5031233  35.8801222
  78.4809685  48.5784626   7.5425136  78.7028885  48.8546848   6.6533071
  78.9732361  49.1735172   8.1080383  13.3194566  39.9309802  63.2883453
  13.9211440  40.5454445  62.8680611  13.3023918  40.2023268  64.2061186
  29.1489005  40.4496145  22.7288604  28.4203625  40.2885056  23.3284473
  29.8541021  40.7721281  23.2900238  47.5866842  57.5212812  53.2430267
  47.8113413  57.0847607  54.0647411  48.3664274  58.0302334  53.0212164
   8.1468070  70.2489519  47.6656246   7.9299074  69.3484783  47.4241066
   7.3939538  70.5481529  48.1754494  13.4577262  22.0640826  58.7699699
  13.7130785  22.9736209  58.9241314  12.6373065  21.9606328  59.2520905
   6.2618512  29.8141241  13.7220252   7.1793497  29.5926189  13.8812840
   5.8605105  29.8115349  14.5910192  36.6382170  62.0199203   4.1856095
  37.1465802  62.6929855   3.7330827  35.7274485  62.2252464   3.9744824
  15.8850718  68.3969069  23.8876128  16.5009069  68.5807657  23.1782651
  16.4083707  68.4747887  24.6853113  74.9065542  38.8138628  18.4122252
  75.4370546  39.6102500  18.3884048  75.4175663  38.1708813  17.9206228
  36.1034036  28.6771178  37.0768142  36.8121457  28.8774347  37.6881957
  36.1368752  27.7259707  36.9746661  77.5214195  32.6470709  62.3340273
  77.5342083  31.7240453  62.0808649  77.1627140  33.0998254  61.5707636
  36.4616323  59.7571230   6.9125789  36.2752295  59.6556854   5.9791994
  37.0950603  59.0662622   7.1067828  75.7331562  54.7164917  49.7649670
  76.0376740  55.5725098  50.0661945  75.3291321  54.3206596  50.5371857
  54.3845701  64.9053669  41.1952543  53.7067938  64.6643734  41.8267393
  55.0923967  65.2657223  41.7294455  75.2274179  48.8831806  10.7024050
  74.4277382  49.3812227  10.8718026  75.7807398  49.0519142  11.4650285
   3.0508575   1.6835937  38.5200024   3.5906532   1.5781304  37.7365947
   2.5105458   0.8939198  38.5466623  37.1421528  14.0736389  65.2020407
  36.7432380  14.7797823  65.7104301  37.0043230  13.2890368  65.7327366
  21.8472266  27.5470662  43.7875652  22.2003961  27.6215696  42.9010248
  21.0570407  28.0871773  43.7767696  33.9848518  57.2469425  46.1668348
  34.0852475  58.1658792  45.9184361  34.4542360  57.1707296  46.9975615
  74.8857069  70.0134039  20.6205201  75.2739096  70.7467794  20.1433563
  74.2762518  70.4229355  21.2345910  21.5985894  61.7536116  60.4769897
  22.2972012  62.2836971  60.8606291  21.2023735  61.3033819  61.2230062
   8.8997442  34.0784693  31.4358878   8.9633894  33.5144711  32.2066569
   8.0300546  33.8987207  31.0787296  61.3299513  53.6915016  37.7817869
  60.7026052  53.1883430  38.3009148  61.7745543  54.2503834  38.4191370
  37.3566413  21.7867637  35.1249981  38.2572055  21.5168810  35.3049469
  36.8205833  21.2112808  35.6706119  52.2657108  51.8734789  25.3347135
  52.7237511  51.3945818  26.0254335  51.4295244  52.1213388  25.7291532
  68.3659554  68.8212252  45.7996082  69.2926025  69.0534878  45.7394695
  68.0009031  69.0707922  44.9506760  15.8575165  60.2274132  38.9017248
  16.3819277  59.4272995  38.8694263  15.0036585  59.9682951  38.5552931
  29.1589165  63.7760973   9.1332293  29.1030169  63.6493874   8.1861007
  30.0272512  64.1536427   9.2735296  64.8975134  17.2460294  29.5197916
  64.4031239  17.2249413  28.7004232  65.1253510  18.1681228  29.6383882
   3.5973006  65.1367521  59.8055840   3.9832363  65.0515699  60.6773806
   4.0767878  65.8596754  59.4009829  20.1984072  50.2621937   4.0557095
  19.6724606  50.1678896   3.2615322  20.0858378  51.1780548   4.3101832
  48.1666660   0.9887271  50.3634357  48.5172653   0.8089587  51.2357855
  47.3082590   1.3797213  50.5261993  58.4987402  49.4445848  45.4106092
  59.0249920  48.6456919  45.3780413  59.0636635  50.1190567  45.0335360
  36.8387461  48.2929897  25.1347303  36.0471821  48.8205242  25.0281191
  37.5547504  48.8875389  24.9109411  57.2842169  58.4407043  62.8131533
  57.7594090  57.6134872  62.7347946  56.6004515  58.3883190  62.1453571
  13.2064068  27.9025626  41.9648886  13.8978553  28.0739570  41.3255501
  12.4188340  28.2797170  41.5728188  24.7919345  44.0748882  48.1518888
  25.3532720  43.8126755  47.4222469  25.3658438  44.5833302  48.7249041
  26.4196873  40.0519419  11.8988693  26.6463757  39.1281796  12.0061314
  26.5931177  40.2354765  10.9755778  37.5521851  59.7994232  36.1000133
  37.9471636  59.7508574  36.9705701  36.6250944  59.6118641  36.2468314
  32.7553654  64.6508694  36.8236184  33.6858606  64.8478174  36.9314122
  32.7105927  63.6947393  36.8301868  34.0286279  29.6700382   2.4944673
  34.7005081  30.1116657   3.0138633  34.2399740  28.7395883   2.5708073
  50.5323410  47.9163265  37.1347070  49.7796822  48.4160757  37.4509144
  50.9683800  48.5044336  36.5180826  47.5023460   0.4918188  64.0594578
  46.9789982   1.2614036  64.2832422  47.4941254   0.4665557  63.1026268
  39.2409229  55.5604792  34.3155384  39.0027738  55.7225704  33.4027147
  38.6042047  54.9128246  34.6178031  41.3630152  52.6338768  32.4043918
  41.3244343  52.4279213  31.4704084  42.0046377  53.3414078  32.4673319
  80.6884193  47.9425287  28.2361698  79.9310446  47.4445868  28.5438538
  80.3269577  48.7876129  27.9689431  61.4618063  24.2611408   5.8811241
  62.3793793  24.3893051   5.6405818  61.2990999  23.3319926   5.7185060
   6.2086731  28.5228229  53.4636116   6.6858923  27.9663944  54.0791416
   5.3627098  28.0884886  53.3543921  62.8629398  57.7229738  44.5304871
  63.4273624  57.3081875  43.8781023  62.7974892  57.0784044  45.2350998
  10.7582462  34.6644282  55.3503275  11.6617155  34.9166822  55.5409622
  10.8070374  34.2207551  54.5035648  14.2457950  33.3859658  54.2994165
  13.4647775  33.5793614  53.7809181  14.3229342  34.1261244  54.9014521
  60.3561354  67.7956438  40.4758739  61.1699963  67.3772669  40.1951170
  60.2677393  67.5531197  41.3976097  31.7806315  37.8374267   7.2647923
  31.6856217  38.7893915   7.2336578  31.9757557  37.5865412   6.3619000
  69.3505192  37.6525903  43.6871052  70.2827644  37.4462509  43.7547684
  69.0308189  37.0883894  42.9830456  52.1710730  67.8911686  63.8239717
  51.5955830  67.2254181  63.4473753  53.0359983  67.4812937  63.8355923
  14.6099782  26.1142039  61.7515707  13.8017535  25.7484984  61.3920355
  15.0164592  25.3839779  62.2182322  64.1423512  72.2030210  62.8295517
  63.4205341  72.4673462  62.2591591  64.8161793  72.8677130  62.6868010
  48.7588501  61.6304445  25.7513428  49.0249968  60.7149458  25.8365512
  48.3123589  61.8276978  26.5747309  61.0694695  52.2333622  11.9936788
  61.2970161  51.4841747  12.5442898  61.8998480  52.6882696  11.8531072
  33.8316011  39.8645234  33.9596868  33.2789636  40.5370951  33.5616064
  34.1455960  40.2622890  34.7717357  45.4056835  70.5326462  22.4994373
  45.2279520  71.2325716  21.8711495  44.5452166  70.2993822  22.8478861
  31.8420601  35.9996843  35.5674386  31.4592719  35.1308274  35.4458213
  32.5704408  35.8580136  36.1721087  70.6889391  58.6640358  63.4183359
  69.9516106  58.0882692  63.2156754  71.4640999  58.1450272  63.2038832
  73.8636160  35.6156254  45.8283806  73.2062197  35.7495308  46.5111160
  74.6872282  35.8896470  46.2318802  28.7295556  70.1729250  16.9711375
  28.9675570  70.6241131  16.1611891  28.9914942  70.7757664  17.6669824
  43.4047937   6.0007626  60.6599188  42.8041458   5.5623794  61.2626410
  43.0747414   6.8974423  60.6028128  37.9663920   4.3563324   9.4851947
  37.1496248   3.8869020   9.6547794  38.0408216   4.3705034   8.5309982
  40.6451511  67.4529457  26.5407920  40.5247402  67.9098415  27.3732448
  41.3153696  66.7944813  26.7237353  48.5866976  40.4185820   1.4080022
  48.9318752  39.6810579   1.9111387  47.7407932  40.6098700   1.8130770
  76.5757322  42.0072603  27.7836633  76.7974234  41.3676834  27.1068859
  75.9131002  42.5659227  27.3774052  20.3246117  77.0044518  46.5302992
  19.6629751  77.6529646  46.7709255  19.8670638  76.1652327  46.5812206
  26.1794972  66.8885612  23.8265204  26.9094896  66.3191700  23.5833406
  25.8914948  66.5584850  24.6776009  46.2301159  29.1107249  17.8726113
  46.6660309  28.7266517  18.6333323  45.4107094  28.6222100  17.7941430
  38.6646485  58.9369392   9.8103482  39.5262885  58.9155483  10.2267039
  38.2917190  59.7779369  10.0746906  67.7322102  59.9155283  30.8612275
  67.1233702  59.9105024  30.1226354  68.5974932  59.8405600  30.4588628
  71.9923639  37.4391031  29.7010136  72.2173882  37.8185797  28.8515472
  71.4822817  36.6579652  29.4868302  62.9964876  52.7139521  35.6837511
  62.3818731  53.3052731  36.1182880  62.4528551  51.9905996  35.3715730
   4.1371787  63.4858084  57.5504017   4.1714603  64.0898705  58.2921362
   4.5514092  63.9644384  56.8323755  37.4649453  59.6794510  25.0082517
  38.0254507  58.9161444  24.8688626  37.4205136  60.1036596  24.1513371
  35.1946926  22.0603323   5.7882112  36.0732889  22.3359847   5.5268407
  34.6222186  22.7643538   5.4834807  51.9163370  65.6817436  35.8685756
  51.2248373  65.6434155  35.2078271  52.4373007  66.4472198  35.6259418
  28.4954739  52.7531052  45.3018379  29.3536448  52.7621651  45.7257366
  28.6514878  53.1326103  44.4370461  29.9357677  60.0419331  40.5817318
  30.1503086  59.8255110  41.4891243  30.5623198  59.5393705  40.0610638
  38.5310483  52.1251488  37.8922939  38.6673188  51.3827658  37.3036242
  38.9941692  51.8830585  38.6942554  67.9746294  53.4654379  34.1288733
  68.3202362  54.2845154  33.7740469  68.5225677  52.7849340  33.7378311
   7.9174376  73.6997080  16.4540946   7.9110724  74.5750284  16.0667908
   8.1533134  73.8449192  17.3703408  56.6947651  62.8275013  23.8614941
  55.7969189  62.9213667  23.5432315  57.1838236  62.5014687  23.1060100
  58.5128546  41.3660908  40.9199381  57.8819418  42.0658970  40.7512856
  58.8650894  41.5651035  41.7874384  15.4881001   7.1433884  15.4697669
  14.6263289   7.5535017  15.5431688  15.8690143   7.5262350  14.6794724
  60.6457520  67.1635723  45.5193043  60.5006218  66.3555479  46.0115051
  61.5219164  67.4482298  45.7791853  38.2737470  59.3192101  48.4003353
  38.7225795  59.9416828  48.9724445  38.9649010  58.7295437  48.0989552
  77.1379042  74.1883850  45.5241299  77.7011633  74.2590761  46.2948227
  76.5730286  74.9598503  45.5687332  63.5626936  51.8245840  14.3811047
  63.2891369  52.2315407  15.2031672  63.0756140  51.0012531  14.3477190
  19.6324873  66.3251114  32.7782035  19.1758394  65.6367445  32.2946167
  19.3079376  66.2434578  33.6749935   2.5742650   0.0572697  19.2125201
   3.4927952   0.2539621  19.3964922   2.3731653   0.5656815  18.4268308
  60.4785347  67.9496002  25.5966687  59.5512009  68.1825018  25.6418133
  60.9402275  68.7756729  25.7404709  76.3239717  44.8466921  14.3367875
  75.6881952  44.2631674  13.9226389  76.7863894  45.2551556  13.6049676
   5.5987793  62.9610205  36.0092711   4.9603808  62.6764679  35.3552747
   5.7382905  62.1900082  36.5591025  55.0556803  77.5312281  45.1369143
  55.1226282  77.6526737  44.1898108  55.6839037  76.8365335  45.3343105
  43.7177896  10.2450180  54.5876694  43.7252522  10.5527782  53.6813259
  43.2711554  10.9389925  55.0725937   0.7275815  74.6028090  61.1855030
  -0.0812143  74.9747372  61.5372849   0.9304503  73.8734913  61.7713118
  66.8386459  51.5474415  39.7401047  66.9652605  51.2695026  38.8329387
  66.1512852  50.9707546  40.0735760  13.1708014   9.4902986  43.1612349
  13.5553193  10.1031959  42.5345516  13.4842932   8.6310363  42.8790617
  76.8826103  77.4926186   7.7348697  77.7064133  77.4206400   7.2527957
  77.0768690  78.0956841   8.4523708  49.8827887  53.9938116  23.5369945
  49.0689850  54.3876648  23.8513803  50.2551460  53.5657263  24.3079185
  48.4423351  54.5100832  34.5820951  48.2100773  55.1008081  35.2985668
  47.6396942  54.4317913  34.0664697  45.8494473  68.4632826  30.0282836
  45.5658436  67.6922035  30.5194497  45.9057808  68.1622171  29.1214085
  43.9215803  62.2341633  36.8676114  44.8313808  62.5293112  36.9048262
  43.9727497  61.2852287  36.9822192   2.9120365  68.0178881   2.6427445
   2.5905547  68.5044336   3.4017915   2.1314055  67.6023531   2.2764391
  77.4935246  30.3668523  38.2671952  76.7589521  30.4097891  37.6549959
  78.2224798  30.7695031  37.7952552  16.8116975   0.3269720  18.2991076
  16.9601381   1.1280810  18.8015234  17.6079690  -0.1881410  18.4288836
  82.1558189  58.9935160  34.3938160  82.0967579  58.0808926  34.1112089
  82.2406292  59.4910908  33.5805154  53.1589317  27.7013612  14.3927288
  53.7741756  28.1120872  13.7852633  53.1958580  26.7694235  14.1774154
  78.2675409  39.9798036  47.6746893  79.1714859  39.7406745  47.4699020
  77.7499247  39.5807314  46.9753695  11.1905229  38.8739753  13.8992345
  11.8444085  39.5376492  14.1187882  11.6121542  38.0419803  14.1142726
  58.7751865  37.4930787  61.6618156  58.8890123  37.9443908  60.8254004
  58.3516455  38.1392217  62.2269249  50.5918312  55.6637192  45.8474636
  50.6360102  56.5548658  46.1940718  49.7090101  55.5913305  45.4846668
  81.8333340  39.1275573  36.8017149  82.2128677  39.9732733  37.0403552
  81.1041927  39.3473291  36.2218022  49.1913557  49.8264217  49.3416452
  49.7426939  49.0451336  49.3846846  49.7071505  50.4561043  48.8379717
   1.3057540  14.3687129  35.0814199   1.4268051  13.4387803  35.2732611
   0.6911627  14.3838894  34.3477440  61.6896161  77.5088228  14.2793918
  61.6630730  77.0827185  13.4226763  62.0234790  78.3876950  14.0995276
  50.9211302  58.3855391  41.0224581  51.2632036  58.3330774  41.9149113
  51.6169786  58.0183840  40.4772758  55.4381037  77.1349001  42.3267651
  54.8174334  77.3990917  41.6476440  55.6436491  76.2228060  42.1216631
  11.4423680  61.3875961  28.7071657  10.7494497  60.7272339  28.7031078
  11.1273313  62.0689869  28.1132865  48.8579082  57.5170088  30.8440375
  49.5742512  57.2938538  31.4384127  48.4103107  58.2469940  31.2718296
  43.8848877  66.1541510  38.2183981  43.4419489  65.3857183  37.8584743
  43.1743670  66.7433596  38.4718251  17.6231730  20.1732016  39.9011660
  17.8831732  20.3078628  40.8124828  18.4354043  19.9380040  39.4526196
  13.8842773   5.7378829  31.9173908  13.5434616   4.9479282  32.3369718
  14.4098842   5.4130381  31.1863327  17.9006159  11.5634811  30.0167894
  17.0922863  11.6670907  29.5146966  17.8020692  12.1636736  30.7559037
  56.1050272  56.8580341  46.7087173  55.6901455  57.6054955  47.1393061
  56.0602951  57.0643282  45.7750797  59.6951962  37.7326202   8.1591254
  58.8889503  37.5250840   8.6314929  59.6556854  38.6791539   8.0222124
  46.2249804  70.8714628  55.5054283  47.1226645  71.1860561  55.6123257
  45.9919024  70.5163288  56.3632107  28.5636711  67.9945946  51.5390110
  27.7440166  67.8497171  52.0116711  29.0049577  67.1454191  51.5589333
  74.2084169  57.5578165  58.4620428  74.2751932  57.1776676  57.5861073
  73.5074282  58.2055426  58.3892250  81.5408516   3.3741656  10.8481693
  80.6063843   3.4457090  10.6535375  81.6001987   3.5153300  11.7930400
  66.3392448  70.9204388  19.0925848  67.0301676  70.2582788  19.0725434
  66.7272854  71.6572857  19.5645118   4.4861487  22.3016453  26.7092252
   5.3122747  22.3948383  26.2348175   4.3602818  21.3559937  26.7875338
   2.4274319  14.7967720  32.3438764   1.7486866  14.4113326  31.7898250
   2.5317532  14.1739106  33.0631757  60.5741692  65.9844065  10.1265442
  61.3194704  65.7456112   9.5754206  60.8889961  65.8605194  11.0219598
  60.7510853   4.0184677  24.5901442  59.8196936   3.8812435  24.4171762
  61.0703373   3.1624290  24.8756385  65.6852579   7.3823410   6.0504204
  65.8568764   6.5977144   6.5711313  66.0313320   7.1742827   5.1825643
  37.3846102  20.7921481  41.5328217  36.4999270  21.0439849  41.2679720
  37.9504323  21.4573598  41.1409378  51.7179918  59.8822212  30.6046605
  51.4027739  60.4358768  29.8902869  51.6402054  58.9895391  30.2680564
  50.8619547  34.8698640  66.9378710  50.7468224  35.2343464  67.8154421
  51.7643738  35.0876713  66.7045593  48.2389402  24.5596337  52.7139711
  47.5841522  23.8930225  52.5063276  49.0433264  24.2409849  52.3045111
  50.0851202  54.4064617  48.8297653  49.4718170  54.7616863  49.4731188
  50.2029991  55.1135063  48.1953955  14.1050923   0.3749653  17.8743076
  14.0180755  -0.0549261  17.0235121  15.0494766   0.4233683  18.0227280
  57.8098345  62.6890469  21.3468623  58.7224722  62.6594639  21.0597205
  57.4025726  61.9302368  20.9290361  59.8355246  53.9160824  22.3542166
  58.9400291  53.9142656  22.0161080  59.9033117  53.1044579  22.8571081
  51.2839890  69.6339750  48.3634043  50.6078434  69.4818211  47.7031708
  51.9430685  68.9616776  48.1906128  13.6655700  38.2943749  40.0113153
  13.2173038  39.0876079  40.3046942  14.0409064  37.9222941  40.8093834
  41.4994097  59.5652962  36.7898035  42.3856068  59.6753979  36.4451742
  41.0623264  59.0019989  36.1511445  75.8666277  15.7798600  28.8639545
  75.9896946  14.8762846  29.1548777  74.9670553  15.8060813  28.5378981
  74.5176935  10.9039247  25.7374477  73.6170769  11.0528481  26.0254455
  74.8290443  10.1846790  26.2869716  52.3258209  50.1102066  23.3287024
  52.2668457  50.6784439  24.0967274  52.2010660  50.6993866  22.5847006
   4.7139055  59.2940521  44.8896646   5.2020663  58.4854364  45.0448179
   4.4909701  59.2644644  43.9592552  21.6456580   6.5257770  20.1778626
  21.9390488   6.4657986  21.0870147  22.4343562   6.7550176  19.6862960
  64.5099640  61.6776323  28.9187765  63.9840508  61.2392569  29.5877123
  63.9364576  62.3618364  28.5735464  48.4499025  60.7600403  40.0122643
  47.5204515  60.9851265  40.0533390  48.7533903  60.8295012  40.9174156
  28.7376833  49.9206352  31.6386008  28.9111805  49.2479801  30.9800673
  28.6123872  49.4324589  32.4523687  50.2285528  55.0194550  56.3069296
  50.3403664  54.5790148  57.1493912  49.5037889  54.5550919  55.8882189
   9.8961699  52.8972244   7.1930873  10.0165713  53.0289364   8.1335056
   9.4670922  53.6981630   6.8920571  54.0754986  52.2289038  51.7848539
  54.7165346  52.0605278  51.0942316  54.3339252  51.6460371  52.4987936
  20.4291797  56.9677210  48.0571413  19.6053529  57.1195698  47.5940132
  20.8526349  57.8258467  48.0802727  15.8354187   3.9599913  38.8938618
  15.4227400   3.4864128  39.6161151  15.5304193   3.5091013  38.1065202
  50.7055521  27.1559525   2.7596596  50.1468897  26.3837767   2.6709542
  50.1040506  27.8967118   2.6841825  48.0039358  77.4185896  23.7568402
  48.1646204  77.6097298  22.8327847  47.0642757  77.5608730  23.8709760
  63.0466700   9.9262047  48.4972811  63.0318451  10.6236804  47.8418875
  62.2230625   9.4564909  48.3658409  53.8284445  64.2538118  32.9374504
  53.0296469  64.5879841  32.5294280  54.4284487  64.1087532  32.2058845
   3.7174085  47.3185490   0.3183089   3.0709270  46.6282784   0.4660188
   3.8268235  47.3448043  -0.6322517  22.2587514  53.1579399  50.8632278
  22.9587245  53.6154413  50.3974342  22.5444794  52.2447109  50.8878374
   2.8742844  62.3234558  39.4264698   2.8771734  63.2766294  39.3388510
   2.5168353  62.1643162  40.3000450  17.2996938   4.9443388  24.2382050
  17.3425102   5.8727020  24.4674230  18.0199707   4.5439392  24.7251487
  76.2071085  49.3869972  31.6242099  75.8176517  50.2606869  31.5892601
  75.4730368  48.8052702  31.8216014   8.7348729   8.1601572  29.0570045
   8.6159259   7.5187027  29.7574472   7.9711139   8.7331462  29.1247320
   5.4412454  52.2714663  38.8549948   5.5966192  51.4612293  38.3695984
   6.2245518  52.7987194  38.6979413  70.2013016  57.8987408  34.4947147
  69.8640537  58.6286354  33.9753461  70.1249981  58.1948137  35.4017711
  57.0163727  49.9585485  12.8691697  56.4176798  50.5503130  13.3248150
  57.3194933  49.3553162  13.5477412  63.0998135  57.9567480  40.5704546
  63.5492945  57.5369501  41.3039160  63.7311649  57.9232025  39.8517704
  53.4992647  72.0561075  47.4643373  52.6714134  72.5288582  47.3783255
  53.3710146  71.2543488  46.9574165  75.6092262  40.6397772  40.8702421
  75.4174757  41.5267277  41.1748457  76.4978409  40.6941605  40.5186272
  66.9884014  68.8163567  43.2640553  66.6535187  69.5203924  42.7087021
  66.2092113  68.4498596  43.6821127  21.0766888  59.5889664  25.2582288
  20.9641671  58.6807299  24.9777436  20.7961774  59.5935202  26.1733913
  73.4157181  61.6440344  33.1979036  73.8435936  61.1671925  33.9090848
  73.9555264  62.4247694  33.0742407  27.1947289  32.8320503  29.4099307
  26.8644261  33.1182551  28.5583353  26.4628315  32.9732084  30.0104594
  36.2973428  55.3380489  19.7106135  36.6209793  55.9226418  19.0252388
  35.3541088  55.2867746  19.5559883  69.5755911  73.9059162  17.9027653
  70.2459002  73.2246447  17.8499067  69.0151358  73.7499762  17.1426308
  81.1211681  31.7957211  62.0735121  81.9809341  32.0579433  61.7444658
  80.7286453  31.3035750  61.3524342  79.0756083  16.9581747  42.5239325
  79.8405170  16.3987029  42.3892736  79.1715002  17.2836304  43.4189844
  78.2167387   3.3201149  53.1493092  77.3014975   3.3790952  53.4233379
  78.3643246   2.3851523  53.0068493  59.3845701  58.8879299  10.4089737
  59.8815727  59.7059679  10.4143858  59.5947266  58.4744501  11.2462914
  66.7182207  39.5919609   6.9985485  67.0958233  38.7499762   7.2529280
  67.1590519  39.8141885   6.1784786  19.1187000   8.5960573  10.0746119
  18.6286438   8.0805534   9.4340396  19.2438591   9.4460881   9.6526945
  18.8270319   7.2431254  54.3500948  18.0530441   6.7718220  54.6583891
  19.1183090   6.7496675  53.5833549  48.6094999  59.7386932  47.6394510
  47.9801750  59.9957085  46.9655609  48.9049911  60.5661249  48.0192852
  80.6254768  61.2598991  65.7421160  79.8676157  61.8414593  65.6814766
  81.2564087  61.7434883  66.2753057  62.2186422  36.7642546  49.3472624
  63.1643343  36.9063973  49.3060732  61.9127131  37.3798037  50.0133991
  74.8674059  76.6414547  42.2589016  74.8088264  77.4472713  41.7456102
  74.0352917  76.1956263  42.1006060  48.5585833  76.0694599  58.7462854
  48.7360668  75.1297474  58.7053394  47.7452040  76.1380243  59.2462301
  35.9564352  37.2473764  64.5728302  35.4211831  36.7077732  65.1546955
  36.5556931  37.7096963  65.1588202  39.8485208  64.4509411  49.3234015
  40.6896687  64.8895264  49.4512749  39.9837351  63.5683346  49.6682930
  55.1756048  21.0648298  17.6370776  55.1203346  20.4261518  16.9262564
  54.2770576  21.3743043  17.7514040  24.3362570   9.8491067  44.4325066
  23.6682343  10.0729334  43.7845278  24.9800515  10.5543482  44.3662167
  48.6417913   4.9575165  62.2788763  49.1144609   4.8581961  61.4524651
  47.7296877   4.7700781  62.0571375  32.4489570  54.2796230  13.5199511
  32.8326726  53.4200096  13.6933434  31.7965364  54.1176462  12.8385246
   3.2860085  23.9231920  14.2024338   3.9072961  23.4442616  14.7509396
   3.6229798  24.8189449  14.1849089  79.6084833  42.1716166   1.7170712
  80.3302956  42.3381281   2.3232798  79.5805168  42.9486227   1.1587600
   1.8212229  76.5794992  43.8651085   1.9808486  76.4821768  42.9263449
   1.0797939  76.0008907  44.0432358  37.3201537  44.3912220   8.2238710
  37.8258705  44.5478630   9.0213341  36.7517066  43.6526155   8.4419465
  50.3253317  68.5160112  55.9922743  50.7442904  67.8013706  56.4718533
  51.0322332  69.1395903  55.8259058  24.2769575  69.9626160  64.0346289
  24.9323153  70.3818846  64.5922613  23.9725399  70.6615305  63.4557676
  76.5145826  43.1627703  33.7897706  75.6746387  43.4728765  33.4513021
  76.7841959  43.8358259  34.4146991  79.2544889  61.2444353  49.0833950
  79.3384933  61.1434269  48.1352520  78.3771610  60.9173775  49.2823076
  20.1756001   7.4254757  28.6481237  19.5715427   8.0369097  28.2268214
  19.6257102   6.6863579  28.9080429  30.8483410  49.2795753  13.0470765
  31.0990453  48.4420967  12.6571977  30.0492358  49.0859604  13.5371554
  58.5165310  50.2468061  25.7020044  58.6385012  49.5679092  25.0383329
  57.7421522  49.9677610  26.1905766  32.6061487  55.0491762   3.2230416
  32.3369908  54.2229939   2.8215271  33.5524988  54.9626160   3.3377472
  33.1767678  14.1703916  22.9180455  32.2281456  14.1319120  22.7961135
  33.4471059  14.9582601  22.4464393  54.1425419  19.6515000  50.4711866
  53.5244656  18.9437258  50.2887964  54.2165422  19.6648908  51.4254284
  10.8141911  15.7494807  40.1391172  11.0012317  16.6844106  40.2236986
  11.2765372  15.3453422  40.8733797  72.8204823  25.4030037  50.4567957
  72.5035763  26.0586190  51.0780621  72.0747614  24.8174810  50.3252840
  76.0142326  41.0259151  14.9088228  75.3670263  41.6360188  14.5550799
  76.2094784  40.4353952  14.1812253  20.9528565   4.3555054  31.6063833
  20.0507355   4.0690473  31.4637303  20.9840441   4.5965779  32.5322032
  56.3071680  71.6996717  47.6983452  55.4069185  72.0096111  47.7969122
  56.6788197  71.7596149  48.5784101  24.7152019  55.4006195  38.5927415
  23.8478804  55.5022621  38.9847279  25.2782631  55.1394653  39.3214345
  54.1949368  62.4936485  39.8592520  54.4485760  63.2211590  40.4272556
  53.4256315  62.1147299  40.2844810  81.3174915  41.9077349  23.6198401
  81.9236565  42.1117687  22.9076862  80.5815411  42.5050735  23.4864855
  38.5979414   7.0244133   0.0326080  39.4675517   7.1135849  -0.3573386
  38.7264872   6.4291131   0.7710696  71.7342234  65.2778292  34.3233442
  72.3357201  64.7605324  34.8589182  71.5758085  64.7362757  33.5501289
  14.8765218   6.8196934  11.8737817  14.2588127   7.0541632  12.5663793
  14.9372697   7.6056814  11.3308597  14.7301531   0.1577106  32.5840306
  13.9879346   0.6042897  32.9913521  15.0727654   0.7899702  31.9522905
  16.7689276  49.8673916  48.7047720  16.0413253  50.0079870  49.3106270
  17.5417316  49.8134041  49.2669916  70.9157276  50.2554369  11.1138141
  70.5794573  50.2233315  12.0094264  70.1770926  50.5685949  10.5917251
  78.3386469  13.1552148   3.8531816  78.2468367  13.2677186   4.7993031
  78.6111069  12.2439313   3.7456656  30.9844112  10.4804063  15.8544779
  30.8472323   9.5528090  16.0467708  31.8760347  10.6578124  16.1540926
  55.7226229  51.2216330  40.6996775  55.2927160  51.8539858  40.1238823
  55.3518534  51.3949251  41.5649748  67.7327824  64.7996235  39.7452331
  67.4221849  64.1325378  39.1330600  68.5594034  65.1029348  39.3698168
  41.1244678  63.4986877  65.5399704  41.6089010  63.8551283  66.2846231
  40.2132893  63.7370396  65.7107687  37.2104549  69.3853474  16.2785578
  37.3424935  69.8626375  17.0977008  37.4543166  70.0099373  15.5954409
  65.4523659  53.3841991  36.5469956  65.9532690  52.6326370  36.2300062
  64.5386553  53.1472492  36.3881993  63.4193182  71.0096598  32.3441148
  63.7514210  71.7074823  31.7793322  62.5320959  71.2875986  32.5717473
  65.0606918  10.1733685   3.6082155  65.7368708   9.8962003   4.2264327
  65.4106808  10.9715486   3.2124257  26.0526681  71.3632393  32.3815608
  26.4217377  71.7701769  31.5977120  25.6643391  72.0900726  32.8685379
  80.4753208  54.4338703  34.9068737  79.9744272  54.4837093  35.7210279
  81.3203907  54.0676641  35.1676106  59.2488003   4.0340635  53.0063534
  58.3703995   3.7976173  52.7084637  59.3163204   3.6509728  53.8809443
  67.9859447  42.9676771   4.6449903  67.9135132  43.7120008   5.2424568
  67.7813101  43.3312654   3.7835029  15.5130315   8.5391510  45.3926182
  15.4685009   8.9107490  46.2736177  14.6838546   8.7892359  44.9849939
  59.2352867  13.8936555  65.3923130  60.1126194  14.1309643  65.6926537
  59.1571951  14.3054247  64.5317459  42.6046467   2.6046500  11.3930714
  42.5048256   1.7809825  11.8703973  41.7101097   2.9261112  11.2804067
  33.1609130  74.2741060  39.8276830  33.9957571  73.8165522  39.7281170
  33.3932424  75.1119661  40.2279902  50.8614683  64.7924376  52.8543806
  50.2107954  64.9351120  53.5417652  50.3912115  64.3071938  52.1764278
  58.4354353  61.6338587  48.0250502  58.3758068  62.5879192  47.9756451
  59.3478727  61.4394903  47.8107691   9.2488313   3.2678148  54.4300222
   9.2380339   3.9772189  53.7874794   8.8484794   2.5267228  53.9753437
   2.8146294  26.7808032  59.1395187   3.4528446  26.2708640  58.6406469
   2.2285853  26.1258745  59.5187998  38.9033675  52.3230028  27.7116513
  39.5286274  51.6666937  28.0191302  38.9589167  53.0276394  28.3571219
  36.9696903  52.2396374   3.3154574  37.0023370  52.1475792   2.3632540
  37.3839211  51.4431238   3.6474350  53.5537624  16.0093415  17.2684944
  53.4255314  15.2733028  16.6701353  53.3549833  15.6519091  18.1339204
  42.7982807  77.2124338  40.7786036  41.9277954  77.5846720  40.6374502
  43.3636236  77.9719305  40.9192562  49.0146828  22.7064872   4.1243544
  48.4912682  23.0637312   3.4069666  49.0523911  21.7663789   3.9482683
  31.1056542  76.6912317  23.6884642  31.7870808  76.3501167  24.2677140
  30.8261490  77.5078106  24.1023612  35.1449537  64.4436646  26.6388535
  36.0420799  64.6739340  26.8804550  34.9882007  64.9163914  25.8214259
  72.4598122  45.2713108  44.0520620  72.8066874  45.0096703  44.9049711
  72.2755194  44.4453239  43.6048365  46.5412426  56.1472321  32.3571277
  46.8917847  56.0428762  31.4725590  46.7657280  57.0456743  32.5992775
  17.0788956   7.7133536  24.5832276  16.2524605   7.7070290  25.0661325
  16.9842660   8.4301192  23.9559126  73.1323338  27.6325488  39.9504995
  73.9509439  27.3659658  40.3688812  72.4815464  27.5941086  40.6513786
  31.3355541  18.2582915   5.0368994  30.8639526  18.2077229   4.2054754
  31.3764691  19.1943991   5.2324998   3.3816743  42.4343824  36.3677621
   2.5204331  42.6379299  36.0029817   4.0000525  42.7171564  35.6940556
  74.9810696  14.9594295  10.3151286  74.3152142  15.4937780  10.7479572
  75.6992483  14.9140429  10.9463120  62.1196222  63.3588123  29.4140244
  62.5624228  62.6059198  29.8055744  61.4228344  62.9762077  28.8807964
   0.0534198  55.1108360  16.8206632   0.9056480  54.7578335  17.0762587
   0.2592984  55.9258604  16.3628638  37.5016832  42.9296017  28.7815571
  36.8215060  42.6334953  29.3864655  37.0610142  43.5661221  28.2186365
   5.2982455  14.7934783  50.5660439   5.9012437  14.6732628  49.8324442
   4.4276819  14.7408152  50.1716137  13.4375679  39.7372413  11.2034953
  13.6162806  39.8722458  12.1341228  13.5895896  38.8026118  11.0635352
  67.4079657  61.6708183  64.2883539  68.2856083  61.6014624  64.6640730
  67.0743513  60.7736397  64.2918396  39.1132736  23.0656695  13.2551301
  38.9537358  22.2032809  13.6386240  39.0296602  23.6736417  13.9897108
  63.3802795  15.0125921  63.5456991  63.6568642  15.7285416  62.9737282
  64.1808987  14.5143652  63.7100363   3.0973837   2.0476383  55.2806425
   3.6010572   2.7847686  54.9354124   2.9221195   2.2830790  56.1917305
  48.6371517  62.4709463  14.2795634  48.5718298  62.9659414  15.0962281
  48.9880514  63.0977774  13.6469650  52.7466202  23.4524584  61.7787743
  53.4014750  23.7044215  62.4298573  51.9164038  23.7599397  62.1426821
  42.4810648  51.6483402  42.0580149  42.2905684  51.0304213  41.3522387
  42.5802565  52.4922132  41.6172552  80.9295654  17.7907157  23.0035758
  80.2819824  17.5788617  23.6758733  81.6645145  17.2052276  23.1860018
  52.0483208  61.2868357  41.3650274  52.3499537  60.7241058  42.0781755
  51.0945415  61.2085485  41.3851833   7.6751006  11.6493332  47.7949047
   7.3340940  10.9496284  47.2378016   8.4471279  11.9712567  47.3295307
  43.3164501   9.8976862  18.5683918  43.0695248  10.1775146  17.6869404
  43.6500120  10.6912589  18.9869750   5.0845599  61.8021965  30.1654696
   5.0978994  62.1507311  29.2740774   5.0338590  60.8532381  30.0508618
  82.7113951  60.3763199  26.1163187  82.5536104  61.2841940  26.3753462
  81.8699306  59.9397373  26.2488556  35.0445032  64.0137672   9.8988348
  35.8682489  64.3898058   9.5885634  35.2300096  63.0800247   9.9985701
  56.4958239  65.8854485  42.5447845  56.7511654  66.5131092  43.2208538
  57.3222685  65.6147575  42.1448517  37.6381302   9.8070836  37.8619933
  37.3027039  10.6812823  38.0607343  37.3173046   9.6224093  36.9792724
  12.3185289  16.7260945  65.4917002  12.6322937  17.5240397  65.0661850
  11.4501131  16.9563639  65.8219481   3.8696703   2.6420769  35.6286216
   3.4417897   1.9408566  35.1372576   4.0215456   3.3302486  34.9808669
  38.5166860  27.0321059  48.5769272  38.3157015  27.9667950  48.6238050
  39.3454242  26.9889522  48.0998945  15.3054059   6.3262200  44.3154144
  15.4242694   7.1797150  44.7321272  14.6025014   6.4653653  43.6807489
  58.5268354  72.2983932  13.0905521  58.1386662  72.6285362  12.2802687
  58.5547876  71.3488245  12.9732025  49.2625093  62.7274609  23.0750179
  48.6523008  62.2716331  23.6547565  48.7953281  63.5201168  22.8110647
  76.3614845  75.0420427   3.2986143  76.5288734  75.4230261   4.1606274
  76.1936569  74.1162157   3.4744278  73.1961489  71.8450308  23.0175829
  73.4805536  71.0816717  23.5202098  72.3056126  72.0155525  23.3243370
  -0.0189910   7.1567303  53.3018780   0.3872075   6.3168067  53.5158014
  -0.1808295   7.5677043  54.1510773  71.1709785  35.0878167  43.4690189
  71.9769907  35.1219869  42.9538441  70.7870388  34.2370343  43.2569122
  75.7833624  69.0695047  36.4192963  76.5312052  69.6249533  36.1992025
  75.5863380  69.2833805  37.3312545  71.3857937   9.1430819  46.4867687
  70.5156469   9.3763793  46.8102551  71.9708729   9.7852015  46.8887615
  21.5453696   4.9575961  66.6694117  21.9203663   5.8350557  66.7447472
  21.0333371   4.8463675  67.4704599  32.4602580   4.9891484  33.7018394
  31.7913866   4.8533720  34.3729639  32.0226669   5.5118078  33.0298495
  18.2755888  57.3786783  59.0767670  18.9154553  57.9631662  59.4831848
  18.0487788  56.7550611  59.7666121  65.6395674  63.9324284  42.7970123
  66.0172224  63.3952284  42.1005774  64.8755836  63.4377813  43.0934668
  70.2718544  63.1833315  26.1334252  69.9731302  63.1350374  27.0415354
  71.1964273  63.4225893  26.1978269  19.6978855   6.7044145  45.8820343
  19.0228510   7.1021825  46.4318895  19.2234433   6.3823885  45.1155901
  16.9313395  77.2231722  27.7595329  17.8342712  77.1705770  27.4461961
  16.8015659  76.4134169  28.2531762  52.3122025  60.0054598  35.8146763
  52.9382372  60.3325891  35.1686907  52.0983267  60.7699776  36.3494658
  60.9331989  62.1987343  62.5342798  61.3304138  63.0592680  62.6681852
  60.7265663  62.1730804  61.5999985  77.1684504  42.3201847  51.2418175
  77.8146553  41.7441034  51.6502047  77.5172901  42.4889851  50.3665733
   9.0287685  16.6346967  31.7281699   8.8187480  15.7130837  31.8790054
   9.4522876  16.9194782  32.5379634  33.1384301  62.0379591  37.4017024
  33.8815022  62.1253014  37.9987383  32.8052044  61.1549997  37.5616121
  66.2403870  75.8543348  48.0374336  66.6231155  75.6352663  47.1878672
  66.9194460  75.6257486  48.6721468  61.3310957  59.0255404  50.5228424
  60.5924892  59.6167660  50.3774452  61.0685730  58.2064915  50.1027584
  19.5476615  33.6009812  19.0667975  20.2215981  33.3875251  18.4214473
  18.9336956  34.1635656  18.5948062  13.4670603  69.6641684  24.3303704
  14.2824304  69.9587870  23.9246559  13.7482309  69.1024446  25.0526190
  12.3461735  61.7273712   7.1897787  12.1157885  60.9215641   7.6521885
  12.5687528  62.3469687   7.8846091  29.7413015   3.9682740  32.4596334
  29.2442656   3.2403958  32.0862937  29.6967983   3.8284746  33.4055233
  52.7833939  76.3823938   0.3563802  52.4578714  77.0067263  -0.2920574
  53.2481098  76.9218874   0.9960827  82.0192051  27.7547169  38.9009190
  82.7694511  28.0264521  39.4296122  81.4501286  27.2894025  39.5139980
   1.6383071  37.8290939  59.3887663   1.4601311  36.9040489  59.5584106
   1.8620731  37.8632712  58.4587193   3.8746136  53.1688213  31.2766027
   3.5219431  53.9260578  30.8092141   3.9257047  53.4531260  32.1891761
  62.4061203  55.2350950  40.2487707  62.6268864  56.1651611  40.2983999
  63.2484388  54.7851610  40.3142595  15.8162642   5.9580421  52.7137661
  15.1971006   6.6651022  52.8952456  16.0811198   5.6438410  53.5782671
  54.3142319  24.0484190  49.6926260  54.0785933  24.9755383  49.7265816
  53.8967133  23.6667395  50.4647923  77.4752665  28.9485669  25.0762773
  77.7708197  29.1777301  25.9573936  76.5253782  28.8624787  25.1570940
  79.9059153  77.1036577  20.8451724  80.6200886  77.7383995  20.9025359
  79.2554712  77.4175453  21.4733648   9.0772408   9.2233723  59.7176266
   9.2672491  10.1009715  59.3860388   8.1420147   9.1025519  59.5533514
  67.1501303  51.8019199  19.9478292  66.6328859  52.4167919  19.4276202
  67.3481464  52.2779512  20.7543087   4.1003340  11.1979651  30.2439833
   4.4618809  12.0414913  30.5159760   3.5367900  11.4078498  29.4992709
  37.3826218  66.3952684  61.3934994  36.8936610  65.9475088  60.7030964
  37.9294062  67.0281029  60.9279013  17.4143791  39.1506457  16.2645209
  17.8086877  39.2623568  15.3994930  18.1520212  38.9468098  16.8394697
  66.2154579  35.6188512  13.4753251  65.6970072  34.9859238  13.9721596
  66.7960501  36.0153723  14.1248727  43.0919027   8.7716877  64.0373468
  43.3108425   7.8442413  63.9471245  43.5057020   9.1900152  63.2823610
  77.2250319  30.3292894  41.0261059  77.5088930  30.4143953  40.1159334
  78.0225420  30.4603505  41.5389729  13.3323121  45.3946829  60.3279686
  13.8232219  46.0489702  60.8251095  13.1155086  45.8324242  59.5047951
  23.0181026   9.8708928  29.8351645  22.8150415   9.6678329  30.7482719
  23.8009739  10.4198086  29.8802543  27.6488781  59.3919086  10.4729593
  28.1160569  58.6155558  10.1643252  27.8353596  59.4264460  11.4111829
  61.6929770  70.1025915  18.5189462  62.6408720  70.0192547  18.4150982
  61.5810347  70.5099678  19.3778670  45.8908129  17.6359463  46.4447403
  46.1718893  16.7348015  46.2861061  45.4603386  17.6056838  47.2991467
  37.8056312  30.7831335  46.1393118  37.6206493  30.1669812  46.8480921
  38.5904694  31.2498569  46.4264154  52.8660440  51.1091900  57.9658890
  53.5454273  51.7694569  57.8290796  53.3133888  50.3960800  58.4215117
  79.8533154   5.1633900  38.4046602  79.2180300   5.8106238  38.7108111
  80.0066376   5.3931743  37.4881864   4.2080873  24.6813416  63.0696917
   3.6789411  25.3871298  63.4413099   4.5003554  24.1761637  63.8283777
  15.8976066  28.7977171  18.0546165  15.4766643  28.1036377  18.5618567
  15.3105521  28.9416432  17.3124015  54.2153740  77.1008396   8.1162441
  53.6418962  77.8498840   8.2783782  54.7965097  77.3918056   7.4134994
  57.2214937  68.6372471  55.7037973  57.3195362  68.6917448  54.7531939
  56.2769079  68.5709620  55.8437538  60.1026440  74.1567516  22.3118711
  60.4993296  74.3186426  21.4559150  60.2475357  74.9672031  22.8001428
  67.8847027  56.5564108  27.0440960  68.7276173  56.3782120  27.4611974
  67.2632122  55.9988785  27.5122166  51.0753393  75.7669258  63.9189625
  50.9646988  74.9576139  63.4199619  51.5649414  76.3443995  63.3332586
  56.7580700  75.9619474  21.2312031  55.8073854  75.9291983  21.3377714
  56.8971586  76.5745258  20.5089617  21.1839485  27.6317883  66.3950586
  20.3074121  27.9310346  66.6366482  21.5999651  28.4000134  66.0039139
   3.5919577  19.1313446  19.6372855   2.9643264  18.4155798  19.7372425
   4.0920326  19.1271257  20.4534578  49.5697021  68.5517406  59.7604036
  49.2926073  68.3397055  60.6517458  49.0399837  67.9817724  59.2029333
  81.6123867  59.8304510  14.6975398  82.5191784  59.8294306  15.0040436
  81.0907745  59.9363899  15.4931080  54.8919630  73.5227776  19.8693550
  54.3425512  74.2605162  20.1341486  54.8105049  73.4935093  18.9160764
  23.8373590  31.7328024  11.9702435  24.7457910  31.9473863  11.7582631
  23.5226035  32.4878812  12.4672508  48.0339098  66.9800568  13.8419247
  48.0536604  67.4476004  14.6769381  48.3921623  66.1154985  14.0429771
  67.5117159  44.7232437  50.9639502  66.8702078  44.1894817  50.4951191
  68.1954765  44.8987818  50.3175020   6.5174180  70.6804276  26.3842773
   7.2673130  71.2682295  26.2927413   5.9267277  71.1372328  26.9831467
  47.6409197  12.6834047  22.7729487  47.2325945  13.5490704  22.7839947
  46.9161081  12.0787024  22.6141667  79.6011782   8.0324543  61.0325813
  80.5104637   8.0837989  60.7379723  79.2800283   7.2045434  60.6752872
  64.8357582  77.9987192  49.7222424  65.3200245  77.4756622  49.0833902
  63.9550495  77.6237869  49.7204828  27.8407168  38.5481405   1.9859064
  27.5775528  38.7950897   1.0993437  27.0423794  38.6375499   2.5063816
  73.9212608   0.6041896  58.4699297  74.7014046   0.4692172  57.9319763
  73.7390661  -0.2562074  58.8477564  32.7635646   4.3017536  43.0091524
  32.7801085   5.1792407  42.6270866  32.1774960   3.8035026  42.4395037
  44.0285158  66.2577534  35.1424360  43.5360003  66.4042377  35.9500241
  43.3642721  66.2590218  34.4532251  80.7632828  49.3519545  24.1364217
  80.6779671  48.4304571  23.8918972  80.6138897  49.8308945  23.3212352
  23.7099385  57.2615767  13.0633616  23.4632373  57.8977346  13.7346840
  23.1822133  57.5006247  12.3013961  67.4297619  58.1596279  38.0217242
  68.2473421  58.3444881  37.5595331  67.4093533  57.2058678  38.1001854
  46.7492199  49.6336365   7.8141630  45.7945490  49.6836996   7.7659243
  46.9207954  48.9514828   8.4633625  69.2237616  60.1919746  20.7160497
  69.0158224  60.3018951  19.7881973  70.0808716  59.7658539  20.7205677
  27.6975203  64.8080206  58.5092402  28.5017800  65.2938032  58.3264446
  27.1631169  64.9252892  57.7238131  58.7578344  39.5887446  59.7595310
  59.0383244  39.6897888  58.8499451  59.1765165  40.3151226  60.2213812
  79.8265600  27.3646235  37.0480561  79.7578621  26.4707613  36.7126155
  80.6130600  27.3559475  37.5935674  22.9394650  46.7678881  45.5875254
  22.6289511  47.3681974  46.2653494  23.8937497  46.8240023  45.6367636
  48.1346798   3.9811641  66.7110348  48.3447218   4.0298444  67.6436329
  48.9747334   3.8110319  66.2848902  18.3173835  63.9925528  15.1682580
  17.7353489  63.8925695  14.4149506  17.7701211  64.3963003  15.8418465
  25.3308010   4.5096165  30.2764273  24.4792438   4.8245236  29.9732518
  25.2859807   3.5592541  30.1713824  68.4490442  36.0727692  41.3543129
  69.2343235  35.6309938  41.0311985  67.7349043  35.7008886  40.8366871
  10.8225417  15.8168852  28.3620715  11.3941181  15.7671893  29.1282725
  10.0074041  16.1920643  28.6952710  24.5409679  39.2009425  38.2312584
  25.4537416  39.2248297  38.5185027  24.0365601  39.1311550  39.0417719
  24.3525481  60.2349091   9.3570632  25.2236414  60.6254959   9.4268352
  23.8637424  60.8380985   8.7971890  68.6754894   4.1247192  19.7647417
  68.9754152   4.7308108  19.0872991  68.8231039   4.5922792  20.5868316
  15.6175196   1.5477245  42.7909422  15.6891084   1.7335989  41.8546915
  16.1638367   0.7730496  42.9237890   1.2237426  47.7869129  50.5573797
   1.3801974  47.7077293  51.4983797   1.3079689  48.7234831  50.3785563
  74.2713785  41.3659334   2.6230282  75.1814222  41.4281750   2.3328847
  73.7833214  41.9010496   1.9971833   1.3091944  69.3541765  43.0031538
   1.5751709  70.1329708  42.5143147   1.0134593  68.7393665  42.3317480
  51.9418383  72.8693628  37.6719880  51.5894127  73.7015104  37.9875183
  52.6425266  73.1190395  37.0695519  15.5142736  46.4543819  65.1139784
  14.9806929  46.8778276  65.7864523  15.2091634  45.5471897  65.1022053
  74.2017460  55.9763718   4.2943978  74.3482256  55.2579737   3.6790252
  73.9533424  55.5446672   5.1118064  61.7733192  76.3647413  11.8559098
  61.8892670  76.1956024  10.9209347  61.1060810  75.7364273  12.1320331
  78.5968113   0.1458985   4.5910677  79.1845369   0.7987692   4.9712864
  79.1139746  -0.6593240   4.5713243   3.0427024  26.8897629  24.4242287
   3.4105027  27.0312691  25.2965426   2.1035787  27.0395255  24.5330858
  82.0663834  54.0919065  22.1193051  81.8357754  53.6830854  22.9535222
  82.7144718  54.7575426  22.3498440  19.4909489  40.6353378   3.8793838
  19.2942405  41.1762619   4.6441987  19.8153543  41.2543201   3.2252795
  63.0803442  67.0402193  18.4982455  63.5654020  67.8439569  18.3112788
  62.3771906  67.0282793  17.8488934  39.2671061  72.3435163  29.5549035
  39.3608809  71.8849325  28.7199545  38.3637547  72.1730900  29.8216295
  45.7713509  34.7151399   2.2698499  45.0844765  35.3532696   2.4627933
  45.8041573  34.6802378   1.3138494  77.6098299  39.0530562   7.9053110
  78.2525873  38.9232278   7.2080034  77.0559549  38.2732368   7.8687340
  37.0948505   7.7907735   2.8364220  37.7425003   7.3903698   2.2563739
  37.5288582   7.8307897   3.6886349  15.6164682  75.4245996  37.0298243
  14.6754277  75.3234196  37.1727872  15.9973121  75.3881216  37.9072404
   2.2295348  12.3698449  28.5336518   2.9308614  12.8321576  28.0746961
   2.0856385  11.5779293  28.0155849  57.2766733  15.2718484  30.5077767
  57.2782898  14.3319571  30.6889796  58.2027149  15.5040789  30.4388738
  25.4069710  68.7223768  31.9060469  25.7042909  69.6268940  32.0044065
  25.0934625  68.4773016  32.7766132  79.5904419  77.5043639  28.0823255
  79.1264984  77.2728668  27.2777152  80.2251932  76.7983730  28.2043815
  24.6384478  66.6153240  13.0026436  25.5652761  66.8031406  13.1507885
  24.1783381  67.3605680  13.3888316  63.2039022  11.9737649  29.3122625
  62.4510765  12.5008869  29.0446234  63.9643049  12.4769747  29.0210605
   1.5635467  73.6063099  22.8817868   1.2265135  74.2667484  22.2764277
   1.0390365  72.8261852  22.7014232  10.4057992   8.2612211  48.2047367
  10.4973769   9.1055852  47.7632666  11.2180841   7.7964711  48.0036545
  63.1080484  68.5346699  30.2572656  63.1395578  67.6168680  29.9873161
  62.5767756  68.5320330  31.0534906  40.1841831   4.6105540  43.3754539
  39.6958852   4.6306980  42.5524139  40.9109783   5.2180272  43.2376766
  18.6305606   8.6306083  47.4951410  18.1656528   9.2679590  48.0372477
  19.3077970   8.2753021  48.0707645  28.2778287  58.3298779  43.6685610
  29.1563892  58.6722374  43.5037899  27.8367400  58.3841133  42.8207827
  54.2464209  31.0226369  19.2902482  54.0281439  31.9320107  19.4942641
  53.7294149  30.8214283  18.5102165  61.0533667  25.4934549   8.6306053
  61.0001326  25.2384496   7.7095348  61.6068459  24.8240614   9.0328515
  23.9839005  54.8126030  67.1892643  24.6353245  54.3655396  66.6488838
  23.1442952  54.5841694  66.7903757  18.1715012  48.8475657  31.7015600
  18.4520519  49.4831800  32.3599839  18.9870036  48.4812403  31.3595152
  34.9767852  41.0447311  15.0937474  35.6293607  40.3453588  15.0583255
  34.1668725  40.6038189  15.3504038   2.2198519  55.6387949  25.7969403
   1.9521031  55.7799482  24.8888564   1.9975987  54.7245169  25.9728217
  48.6875629  40.2985620  18.8665354  48.1305456  39.6769309  18.3979881
  48.1772614  40.5425978  19.6387219   8.3603048  18.0813396  27.5401068
   8.0381519  17.3803329  28.1067109   8.8291162  18.6705923  28.1310630
  46.8846989  34.8612070  63.1500053  46.2436914  35.3410220  63.6745214
  46.4999723  33.9919186  63.0379486  11.2410522  13.4326899  48.5900736
  10.8184969  13.0268168  47.8331423  10.5166101  13.6800933  49.1647100
  15.8646202  24.4588614  50.2198601  16.2656975  23.6925268  50.6298637
  15.9957218  25.1651192  50.8525085   6.3565856  41.7373848  45.4865789
   5.8342952  41.4218378  44.7491026   6.3402152  41.0173845  46.1171103
  53.9374399  35.1406121   5.1572329  53.4826946  34.3032503   5.0663269
  53.3362103  35.7820177   4.7786105  76.8169737  21.6297984  29.2467928
  76.2103605  22.3345780  29.4738126  76.3736725  21.1478329  28.5486341
  66.6030216  33.5630894  59.3739605  65.9103870  33.5251498  60.0335455
  66.3893986  34.3326211  58.8463116  41.5217686  74.5733261  66.4395046
  42.4324942  74.5376825  66.1470222  41.2056780  73.6744022  66.3486528
  76.1606789  29.1381383  22.0464039  76.7210960  28.3853507  21.8580580
  76.7540169  29.7918391  22.4163556  54.3649006  44.5913935  60.4617262
  53.7833309  43.8511658  60.6351376  55.0556755  44.2285109  59.9073124
  44.8545361  63.0013943  22.5856161  45.6933069  62.6514006  22.8859472
  44.8067045  63.8749981  22.9738927  39.3196154  11.5131426  32.8926969
  40.2568579  11.3432443  32.7981210  39.2399502  12.4641621  32.8188920
  79.9012709  55.5030060  62.9391146  80.0188541  56.3536882  62.5163412
  79.5811462  54.9310637  62.2415209  79.4332457  66.2166023  25.1922655
  79.8870420  66.4944506  24.3965864  78.5054350  66.3484669  24.9972916
  69.2617321  68.0202198  54.6304274  70.1620293  67.7846098  54.8544550
  68.7463951  67.2490644  54.8670340   4.7037536  34.2215037  62.5950098
   5.1386660  34.2262721  61.7423296   4.4931138  35.1402640  62.7615786
  39.3447340  68.8180612   0.0717412  39.3651534  68.1015657   0.7061253
  39.9342299  69.4779943   0.4367219  22.5969863  66.8831110  35.4470968
  22.2235370  66.8056583  34.5691633  22.0337868  67.5164890  35.8919263
  74.7302532  21.9123673  41.4028645  74.6330500  21.4561105  42.2386932
  74.0214872  21.5690947  40.8587646  76.8264055  56.3182592  44.6213531
  77.5409555  56.9293690  44.4419146  77.1063948  55.8459425  45.4054213
  31.2147784  31.8402719  32.3868966  30.5738020  31.6594791  33.0744243
  30.8848906  32.6269960  31.9527650  48.8557768  39.3116903  54.2652130
  49.2138720  38.4319282  54.1468000  47.9550552  39.1666722  54.5548677
   4.8410141  43.4467173  61.6734362   4.2557934  43.6659861  60.9484053
   4.9899545  42.5053453  61.5847206  70.5176735  67.1939182  61.8345022
  70.3189945  66.4121675  62.3498869  70.6100559  67.8915024  62.4834013
  20.5161285  53.9294767  10.7491112  19.7442603  54.4532919  10.9637487
  21.2012196  54.5740032  10.5717182  49.5557976   9.9392998  28.1584048
  49.7635555   9.1997683  28.7295079  50.4005814  10.3567874  27.9902601
  30.1712799  25.0574660  15.5574715  30.8524084  24.4546556  15.8556545
  29.4698310  24.4884491  15.2405751  22.5836420   3.1728196  54.9084377
  22.6472282   2.8329015  54.0158844  21.8205142   3.7503687  54.8909760
  12.3023486   7.8623539  36.6292286  12.2189426   8.6529499  36.0960937
  12.7109504   7.2224116  36.0463476  25.4073167  44.8614597  10.1547766
  24.6414256  44.4351387  10.5393422  25.1590967  45.0242853   9.2447728
  15.1703811  55.6661272   0.4087438  14.7917056  55.9685898   1.2341855
  14.5051527  55.8696270  -0.2487437  29.7013497  41.2920189  37.1023202
  30.5532742  40.8560753  37.1225977  29.8877120  42.1661806  36.7597651
  16.3605297  21.0322952  11.1733961  17.1607172  21.0372877  11.6986644
  15.7734108  20.4351544  11.6370165  53.4607935  11.9854724  30.7565093
  53.1035089  11.2884605  31.3067412  54.2681217  11.6172111  30.3975725
  12.4922395  69.3056917  38.9287114  11.9725299  68.8756561  38.2495904
  12.9930723  68.5966444  39.3320107  29.3437386  12.1708846  36.3898468
  30.1715350  11.9622493  35.9568834  29.1137838  13.0398953  36.0609484
  79.1665268  67.3463583  58.6328030  79.8736954  67.6411772  59.2065859
  79.5582199  67.3286486  57.7595949  69.8503685  59.3462801  54.0284586
  69.6442127  58.5058260  54.4375658  68.9991045  59.7635889  53.8963985
  73.0813551  64.3214703  49.2237616  73.5464287  63.8381958  49.9066877
  72.4476433  63.6941719  48.8757133  39.4726562  60.7912731  50.4509497
  40.1980352  60.1926184  50.6289148  39.6361113  61.5420008  51.0218477
  17.8097451   2.1983552  54.8275375  17.5011051   1.4229071  54.3588638
  18.0393922   2.8200305  54.1368771  78.4068680  12.2525728  23.3941913
  78.2469368  12.1850348  22.4528670  78.6331654  11.3622510  23.6631727
   9.3196309  21.3656664  24.1270208   9.0669966  21.1883593  23.2209468
   9.2022270  20.5287838  24.5765495  53.7176752  14.1118431  15.5073464
  53.4303331  14.2792308  14.6097684  54.2212534  13.2998300  15.4501259
  28.8460588  34.8737264  11.2515187  29.1692829  35.1659536  10.3992498
  29.1166568  33.9573693  11.3089430  64.9690580  74.0894747  23.7012243
  64.9200344  74.9128389  23.2155275  65.6534338  73.5894156  23.2564688
  51.0731506  31.0653949  10.2052045  50.7620811  30.3383017   9.6659422
  51.4070225  30.6486726  10.9996247  75.4751301  28.3476353  15.0512123
  74.6122074  28.4707499  15.4467380  76.0917234  28.5256243  15.7613993
  61.3012409  56.8838406  64.3125868  60.6487131  56.4069843  63.7997007
  60.9769392  57.7841473  64.3351269  24.3463898  16.2599516  32.5799394
  23.5032082  16.6138315  32.2970128  24.7211981  15.8726943  31.7888761
  20.8692789  21.3644910  40.8350992  20.2900386  22.1085453  40.6704998
  20.8332920  20.8499670  40.0287485  57.4861717  33.6582160   6.3281929
  58.0053091  33.3105540   5.6030297  57.2851133  34.5575261   6.0692555
  37.3109102  10.8537948  63.6260605  36.6152859  10.4890811  64.1731644
  37.9824352  11.1343050  64.2478275  44.9727821   3.0788040  29.5845985
  44.4861460   2.3566642  29.9820018  44.5142460   3.8663802  29.8773432
  78.8023281  59.1419983   8.2764709  79.7368479  59.2892361   8.4221727
  78.3688450  59.6835852   8.9360225  29.0538120  33.3010435   7.6366025
  28.3606982  33.8609362   7.9863822  28.6749625  32.4220061   7.6375169
   3.2313821  73.0534744   1.8677197   3.2221487  72.7995110   0.9448715
   2.3189203  73.2623053   2.0678070  54.6631622   6.5373570  12.2324419
  55.3388262   7.2003061  12.3745990  54.9440861   5.7915425  12.7626073
  42.1991348  29.5705891  17.1742773  42.8454494  28.8647628  17.1564901
  41.4957714  29.2373013  17.7314413  32.6320195   2.9828113  10.3066087
  32.0094013   2.6378128   9.6666449  33.0311084   2.2047819  10.6960070
  10.4056704  71.0846758  32.5041890  10.8263910  70.3347540  32.0836592
  11.1324286  71.6133738  32.8336310  28.5579348   0.9584415   9.5656598
  28.2659459   0.0625577   9.7340840  28.0196309   1.4985596  10.1442218
  54.8466396  68.8361979  53.6655521  54.5528889  68.6351967  52.7769899
  55.5992699  69.4149542  53.5438299   4.5676407  16.1070836  28.8549328
   4.5818049  16.8728447  28.2807899   4.9229157  16.4237952  29.6854186
  50.8809519  65.8670092  62.4224234  51.1399174  65.1022243  62.9365063
  49.9250364  65.8251905  62.3957920  41.2561321  73.2110596  14.8161519
  41.6772079  72.4381971  15.1924622  41.1664152  73.8169670  15.5517173
  77.1158695  69.0032530  59.0856600  77.3337841  69.8306751  58.6565685
  77.7107000  68.3651781  58.6916208  62.2810221  28.5895944  10.5375159
  61.3465786  28.5300279  10.3387833  62.7052021  28.6416531   9.6810156
  62.6014566  30.5979824  42.7595806  61.9175339  31.0129476  43.2852173
  63.4160852  30.8122134  43.2142353  48.3371067  10.6212258  19.4424641
  47.4349165  10.6684184  19.7587824  48.2832241  10.8867097  18.5243976
  15.5675387  12.7269948  44.4225788  16.3648224  12.4133706  44.8494434
  15.7857466  12.7444398  43.4907484  19.3115544  59.2897797  19.4607568
  18.6020708  59.5781136  18.8865376  19.6970594  60.1012278  19.7911572
  64.4378471  19.5642841  50.7482767  64.9890327  18.7944543  50.6076050
  64.7362471  19.9230194  51.5840387  62.7711487  11.4251733  62.3713684
  62.4050331  11.2147522  63.2303858  63.5070992  10.8215284  62.2702742
  57.4187660  33.4717774   8.9130151  58.0747080  33.5694718   8.2227743
  56.6190672  33.2223201   8.4498948  69.1082764  51.8351746  65.4011297
  68.6661291  52.4609089  65.9748793  68.4580660  51.6235161  64.7313118
  38.0474973  36.7585111  10.6188500  38.6947989  37.4502063  10.4817712
  37.2415686  37.1054554  10.2363086  18.2258260  20.3555346  21.3007498
  17.3144710  20.2439260  21.0301805  18.3661604  21.3022566  21.2848759
  56.8428040  29.2532229   2.0619839  56.7067099  28.7253737   2.8488046
  57.7596045  29.5240140   2.1108483  47.6526976  38.9891362   5.4533803
  47.3326063  39.4829798   6.2082905  46.9973421  39.1410279   4.7724444
  47.6669931   9.3127674   4.1525117  47.1191549  10.0913310   4.2522320
  47.1116018   8.5900557   4.4448426  66.3583040   4.0240604  12.3312140
  65.9820843   4.4708911  13.0895233  67.2545147   3.8165838  12.5957739
  27.9555273  31.8799472   3.8598472  28.2455301  31.4196897   4.6474347
  27.8294516  31.1878610   3.2107303  77.0533705  22.9558945  65.4469919
  77.3334312  23.5217547  64.7275496  76.7791414  23.5617614  66.1354351
  64.5763874  64.7702837  26.0593748  63.6457539  64.6018267  26.2069321
  64.6534061  64.8750639  25.1110482   4.2698401  67.4847031   5.9832805
   3.3310491  67.6266384   6.1047578   4.6281648  68.3608913   5.8414143
  15.4414749  25.1414776   5.7335716  15.6954145  26.0307598   5.4867387
  14.6412599  24.9739981   5.2357364   4.3064320  19.6889758   1.8400314
   3.5131726  19.3404269   2.2468299   4.5576704  19.0252602   1.1976969
  29.2824817  18.2792163  43.2253075  28.9737797  18.1863987  44.1265965
  28.8434649  19.0657854  42.9015732  76.4421844  43.3261967  22.1175456
  76.1734009  42.4121904  22.2101593  76.8397093  43.3720160  21.2479997
  16.0601735  16.7453170  33.7254477  15.1052427  16.7347229  33.7904763
  16.3609970  16.8259120  34.6305680  34.2668867  36.4567518  12.0865142
  35.1351953  36.2673235  12.4420261  33.8235736  35.6085157  12.0724308
  21.8552732  67.4360704  48.8430738  21.4972615  67.0672750  48.0355787
  21.8085051  66.7188835  49.4752789  78.6492777  66.2040377   9.1654271
  77.7416039  65.9580374   8.9869726  78.7109900  66.2154102  10.1205683
  51.8122530  56.3820696  52.3560810  51.7950964  56.8498230  51.5211248
  52.6254702  56.6664410  52.7732611  57.4040747  26.4681005  63.0958223
  56.4875174  26.2004113  63.1629038  57.7315521  26.0094047  62.3221350
  52.9524612   6.4404249   8.5923594  52.3139000   5.9329760   9.0933251
  52.6667786   6.3538665   7.6828951  53.4807444  14.5734918   2.9454821
  52.8799963  14.4826949   3.6851376  53.9767504  15.3696513   3.1361142
  20.5199909  50.0470686  20.4368567  20.2469468  50.5257940  21.2194800
  19.7981489  49.4434452  20.2613091  23.0985451  47.9563522  59.3341589
  23.9390326  47.4991083  59.3069506  22.4571800  47.2682667  59.5114231
  62.1170902   2.3973218  13.1457841  61.2023306   2.5772756  13.3627200
  62.6179361   2.9748717  13.7218201  30.9234500  36.1797619  27.6911521
  30.8993649  36.9272232  27.0936966  31.8559170  36.0146761  27.8307509
  23.0623603  40.3095388  32.9488993  22.6987052  39.7501111  32.2625852
  23.3644152  39.6985173  33.6209488  35.7943773  29.4954205  57.4639511
  36.6497374  29.8072886  57.1684361  35.9920669  28.7314606  58.0057192
  78.6179781  52.7250719  63.5470438  78.3841944  52.4308968  62.6666832
  79.3065023  53.3751965  63.4073782  38.7163448  75.9988070  19.7543788
  37.8186917  75.8140469  19.4781280  39.1802263  76.2008142  18.9418280
  45.6977272   8.6806267   9.5504713  45.6084108   7.7277434   9.5341003
  45.9512329   8.8819861  10.4512608  55.8538580  18.3371937  45.3578281
  56.5834618  17.8047121  45.0410080  55.6876898  18.0133295  46.2431145
  21.3195586  33.1752944  62.1550560  21.4728928  34.0337563  62.5497246
  21.1209750  33.3652425  61.2381506  29.5174861  47.1629000   2.2537373
  29.7394633  47.0960331   3.1824389  30.0206184  46.4637470   1.8362781
  62.8429794  53.4382629  48.0616045  62.2549629  53.9046812  48.6556768
  62.5709867  53.7173748  47.1873379  16.3689387  29.6636558  28.1137323
  17.0414221  28.9932775  28.2345200  15.5455232  29.1759992  28.0935121
  80.2608871  48.4211731  31.3744187  80.5401802  49.1538429  30.8254004
  79.6831751  48.8173199  32.0267653  40.4762936  32.1531463  46.2501335
  41.0666513  32.7177954  46.7490149  40.9110975  31.3004470  46.2411594
  17.6189017  75.3535032  63.2740355  17.2003949  75.5551291  64.1109514
  18.4609365  74.9668789  63.5143089  40.0714397  25.6236553   7.1473104
  39.6845341  24.7646165   7.3163944  40.3206873  25.5964494   6.2235320
  21.8907261  75.8851051  28.0304503  21.7396164  75.5820847  27.1351433
  21.0144210  75.9665060  28.4068704   0.8905493  45.8238268  47.4154425
   1.5789178  45.5650139  46.8027449   1.3521346  45.9930325  48.2367468
   5.2488172  60.9276104  22.4475694   6.1456633  60.5980015  22.5046539
   5.0260365  61.1725378  23.3456850  63.5435009  22.8226233  52.8946114
  64.1250801  22.1537018  52.5333071  63.4818125  22.6088691  53.8255930
  49.4371796  17.1433866  30.5548215  48.5537100  17.4432087  30.3407645
  49.5824957  17.4467313  31.4509773  11.3787258  40.6227112  57.9603481
  11.3129210  39.7424316  58.3304977  11.7269874  41.1571932  58.6739826
   5.1680601  75.2745724  24.2495728   5.6050128  74.9401379  25.0328112
   4.7490501  76.0857773  24.5369935  63.8762760  63.2200432   7.6478285
  63.1127787  62.7524328   7.3092282  63.7229586  64.1340399   7.4083853
  14.9221694  71.8833542  23.0730724  15.6834602  71.4620686  22.6740885
  14.5280921  72.3887682  22.3620939  65.7092714  53.5914516  52.6938152
  65.8797741  54.3409252  53.2642984  65.4433966  53.9803076  51.8605518
  44.7412586   3.5758847  24.0640593  43.8649654   3.3430395  23.7572622
  44.8248386   3.1331709  24.9086022  46.2176466  22.7730131  52.8079414
  46.1331844  22.5890160  53.7434816  45.3559446  22.5684047  52.4448442
  17.2476840   6.7893720  50.5762005  16.6983831   6.5708756  51.3290358
  16.8085575   7.5354308  50.1677942  30.9440446   7.9408979  16.2226582
  30.2776575   7.3871422  16.6294932  31.2928152   7.4094337  15.5070210
  15.9740520   4.5906442   0.3737548  16.1072147   5.4287177   0.8166233
  15.3373528   4.7821370  -0.3148502  55.1437044  29.9692988  56.3697004
  55.0723934  30.7999802  56.8399286  55.4852438  30.2101064  55.5085421
  14.9032501  74.8977302  -0.3023233  14.3342403  74.8773907   0.4671203
  15.7872346  74.9795555   0.0556003  17.1264148   8.8408530  17.0496047
  16.8850505   8.8074589  17.9752719  16.4947784   8.2666498  16.6165233
  12.7183962  77.3986101  22.1768212  12.5300586  77.4797297  23.1117964
  13.5704541  76.9639349  22.1409631  21.0294247  68.8288260  36.2965941
  20.2320910  68.3155632  36.1660361  20.7664585  69.5333672  36.8887973
  56.5279198  62.8559017  54.2144156  55.8690405  63.4833050  53.9169693
  57.0971060  63.3627701  54.7935009  50.1759529  51.9516802  61.2005854
  49.3807697  52.3699808  61.5306520  50.8690071  52.5909948  61.3654613
  61.2604761  62.2109365  53.7014484  60.4734278  62.1024418  53.1675863
  60.9467888  62.6125813  54.5117092  62.6478720  16.9164991  44.7829914
  62.4229193  16.9286060  43.8526821  62.6418877  17.8377283  45.0428629
  56.4287949  29.3229914   9.1767913  56.6485977  28.4228349   8.9367133
  55.4745293  29.3246913   9.2516869  44.5667458   4.6415240  11.4114785
  44.8443079   4.7302181  12.3232484  44.0072489   3.8648883  11.4059043
  62.3913479  23.2465649  16.0720789  62.9168892  23.9715266  15.7337511
  62.4941254  22.5521374  15.4213560  37.3403072  29.4767547  12.0189726
  36.4920449  29.8293686  11.7499983  37.9058528  30.2452445  12.0952201
  77.0427942  13.5578990   1.5403277  77.5579214  13.5662711   2.3470530
  77.6178122  13.1494582   0.8932079  37.9788852   9.7761828  23.9612198
  37.7680516   9.1551530  24.6584320  38.8576865  10.0886202  24.1764379
  10.6672704   4.3046042  20.2456212  11.1066473   3.9984033  21.0389805
  11.3629889   4.7093502  19.7275579  35.7906747  12.8789151  22.5377417
  35.1590729  12.3436737  22.0572948  35.2938199  13.6512506  22.8076744
  69.9207640  26.8832231   1.7550039  70.5056095  27.5447869   1.3855167
  69.9287367  26.1719203   1.1145243  74.5115185  10.4059172  61.5667248
  75.0504589  10.4428244  60.7765245  75.0305367   9.8938692  62.1869278
  47.1984577  34.3805289   9.2883593  47.4745464  35.1294947   9.8166192
  48.0161905  33.9935350   8.9756644  59.2715502  46.5969896  44.9360466
  58.8951206  45.8734226  45.4370308  59.6650267  46.1788559  44.1701651
  12.9733193  31.2288356   1.5051249  13.2574689  30.3443503   1.7357218
  13.7529194  31.6416192   1.1335538  49.0800953  37.5560713   1.5634945
  48.6661816  36.8982053   1.0048171  49.9995089  37.5522041   1.2972325
  29.6215844  52.9785872  53.8668633  30.5746388  52.9101086  53.9236832
  29.2971969  52.2433949  54.3869591  60.8395433  74.6743917  62.2046328
  59.8928881  74.5728588  62.1057844  61.1954689  73.8086367  62.0045900
  55.2296543  48.0025434  17.8189969  55.0942850  47.1526909  17.3998880
  55.0515890  47.8435421  18.7459505  33.8901925  58.9919949  52.7114677
  34.1142273  58.4386253  51.9632530  32.9443002  58.8860941  52.8129768
  31.9864736   0.6780151  40.6693077  32.5812138   0.6367019  39.9204373
  32.5271232   0.4280666  41.4186144  24.0978432  73.4920645  57.3764563
  23.9595628  72.8509045  58.0736113  23.6658406  74.2858410  57.6919317
  65.0762606  31.4812803   5.7679200  65.5188036  30.9175801   5.1333898
  64.7892618  32.2380042   5.2568114  45.5471706  17.0288014  10.6212008
  44.7438240  17.0194364  11.1415637  45.3287888  17.5564051   9.8529720
  67.7070045  17.1896553  10.2316022  68.0005789  16.9600534   9.3499404
  67.6552486  18.1454360  10.2254975  25.6281614  33.4068537  24.2806864
  25.2211380  33.1078339  25.0937986  24.8913026  33.6301160  23.7119842
  24.0122342  55.3947401  58.9308548  24.8810506  55.2556181  59.3077230
  23.4287667  55.4491806  59.6877098  41.4517403  29.7000265  13.1496358
  41.7667580  30.2541566  13.8637328  41.1344147  28.9078808  13.5832703
  60.5251741  18.5882711   1.4267281  60.5173254  18.0726457   2.2331405
  61.3641453  19.0487373   1.4450251  81.3330650   3.6579105  13.4722626
  81.0638332   4.4552949  13.9282501  81.1705971   2.9554829  14.1018903
  47.2991228  22.4422526   9.4408977  47.3252153  23.1505585   8.7975818
  48.2186699  22.2629642   9.6371692   9.5567614  57.8358507  66.9234324
  10.3661907  57.8984404  67.4305201   9.6441114  57.0186329  66.4327621
  66.5212059  33.4914446  38.7788081  66.8292379  33.1814265  39.6304178
  66.0696030  32.7379465  38.3986425   4.6718127  23.8103843  48.3791065
   4.1085362  24.2365146  47.7330685   4.1403410  23.0929422  48.7241364
  76.9968605  52.0500517  46.4535952  76.3863993  52.7426338  46.7063618
  76.4462996  51.3839960  46.0419083  74.3301868  54.5020914  52.2643137
  73.8197088  55.1256561  52.7808475  75.0759506  54.2823935  52.8227043
   5.8927941  57.6144123  65.8806658   5.4941738  57.5210667  66.7458963
   5.6002033  56.8416309  65.3975201  64.8489380  75.5316114  43.2009363
  63.9522743  75.8115482  43.3849573  65.1885700  75.2435398  44.0482235
  15.6373727  50.1920795  31.8607068  16.4074659  49.7834063  31.4655161
  15.9766865  50.9775972  32.2897243  17.7292776  12.3762882  40.1189804
  17.2000790  13.1570542  40.2820301  17.5516403  11.8060446  40.8669758
  43.2127666  33.0894232  13.3676827  44.0174580  33.5900474  13.5021448
  43.3275986  32.6768160  12.5116456  47.0030355  47.7815580   4.0590882
  47.9515123  47.7959871   4.1872221  46.7685509  48.6963034   3.9025941
  11.9532132  28.6614704   4.6830899  11.8509936  29.3737125   5.3143537
  12.8560185  28.7419057   4.3753475  44.7616529  16.6398573  20.5222988
  45.4754877  17.1322358  20.1170397  45.1986217  15.9391987  21.0064149
  70.8370781  11.4227200  19.0438068  71.5419722  10.8151269  18.8197827
  70.9600019  11.5987253  19.9766207  54.5035172  32.6832557   7.7466202
  53.8473940  32.0273995   7.5108588  55.0243616  32.7975106   6.9516987
  65.2867126  33.9051604  62.9697704  65.4399729  33.0460644  63.3630896
  64.6539927  34.3257213  63.5520315  62.2503853  50.3622961   3.1020609
  61.7467880  50.9813023   2.5734299  61.5922260  49.7783375   3.4789541
  76.4250708  58.4398508   0.6419419  76.3240814  59.2206335   1.1863771
  76.6903591  57.7535868   1.2542325  15.8139932  34.3393230  11.6194952
  15.8607590  33.5248756  12.1202135  16.1135960  34.0989900  10.7427335
  32.9026556  39.9760485  16.4737272  32.8939128  39.0289354  16.3354027
  33.0590296  40.0795794  17.4123752   5.3030217  72.4292660  42.1841383
   6.1662221  72.8390074  42.1273041   4.8636335  72.8941727  42.8962040
  15.7884383  12.5489104  11.9417930  15.6053019  12.4308693  12.8738654
  15.5438697  13.4568548  11.7627549  73.0506086  71.7924452  63.5422468
  72.1775532  71.9931316  63.2050037  73.4075260  71.1581135  62.9205894
  68.4194040  52.4456739   4.7930840  68.7985611  52.3506546   5.6668347
  67.7083731  53.0761576   4.9078092  44.6582270  77.0339108   1.0054099
  43.7456703  76.9713449   0.7233602  45.0494528  76.2026119   0.7368568
   1.5178117  67.4241972   6.8457216   1.8913503  66.7966795   7.4645299
   1.2955590  68.1856108   7.3815233  45.2898169  56.6913033  63.8406181
  44.8532057  57.1910238  64.5304632  44.6968603  55.9615040  63.6616564
  35.8772421   2.7217716   0.6089933  35.5783343   3.6304373   0.5741782
  35.2200842   2.2736976   1.1415399  41.6226530  33.4417653   0.6104062
  42.5165462  33.4698224   0.2692316  41.4920330  34.3013144   1.0108426
  45.5178452  31.4917302  18.6824799  45.7681704  30.6473184  18.3075964
  44.9458027  31.2677622  19.4165349  72.6486397  66.6294813   4.7170785
  72.5696516  65.7872677   4.2691165  71.7461967  66.9314623   4.8202285
  46.9762850  10.9158838  32.5582218  47.6593781  11.5005028  32.8866076
  47.3480129  10.0384808  32.6488495  35.8994222  16.4742386  20.3341532
  35.2543640  15.8410907  20.0191092  36.2361979  16.8885350  19.5396888
  66.0734177  47.1730947  58.1188059  66.0684633  47.0289516  59.0650797
  66.0070610  46.2954712  57.7424955  58.8441277  44.5847511  47.1142197
  58.8364410  44.3027878  48.0289173  57.9224634  44.5847273  46.8558264
  67.9665661  36.9067025  15.4055774  68.9025259  37.0787096  15.5086553
  67.6146984  36.9558525  16.2943995   9.0381497  60.5114985  44.0807867
   8.5600358  61.2340069  44.4877481   9.7440809  60.9359646  43.5932159
  53.7075090   0.8665037  42.6594400  53.7226105   0.0406952  43.1432199
  54.1473913   0.6679117  41.8328190  54.8496199  72.5153065   1.7475520
  54.3917513  72.3952103   0.9155877  54.1506147  72.6323080   2.3909257
   7.7957684  70.1051855  66.8658876   8.1331223  69.2113829  66.9253540
   7.5691742  70.3360987  67.7667570   0.6182256   8.7968731  21.3266182
   0.4917779   8.1870979  22.0535398   0.5199494   8.2576948  20.5418491
  58.0298567  75.3988457  14.9369586  57.3261261  75.0735807  14.3755317
  58.2037973  76.2832880  14.6148777  20.6460261  25.0122857  65.3329992
  21.0169959  24.5733619  66.0984755  20.5772591  25.9307885  65.5934906
  63.4318447  12.8523612  25.5266404  62.6033926  13.0064428  25.0725889
  63.3300352  11.9874120  25.9237957  58.6049509  12.8681540  12.1614695
  58.7176275  13.7861192  12.4081981  58.6122513  12.8747702  11.2043202
  54.8015976  67.0030117  55.8669949  54.6726465  67.4509478  55.0309563
  55.3095865  66.2227488  55.6448126  44.1403484  27.2747517  17.4534285
  44.7064829  26.5086055  17.5469470  43.6018419  27.0823717  16.6858149
  62.8009653  37.6173234  56.6362047  61.9289064  37.4569654  56.9967985
  63.2551718  36.7795873  56.7263317  57.4106979  70.1067209  59.4162655
  56.6411161  70.4274654  59.8864841  57.0682240  69.4354248  58.8260937
  59.8667765  52.0303679  15.3052604  60.0983906  51.2663174  15.8332884
  60.5807066  52.1096230  14.6726036  55.6983948  23.8221025  31.2911081
  55.1773167  24.5051169  31.7132497  55.8380270  23.1691027  31.9769120
  67.1127129   2.7420539  64.7074223  67.5288773   1.8800700  64.7023487
  66.2350988   2.5822723  65.0545502  34.2098665  25.0256252   1.6488780
  34.4055367  25.8048987   1.1286128  34.5465517  24.2978859   1.1261263
  42.0847321  66.5175962  33.0879402  41.3791895  66.2475348  33.6757421
  41.8030548  67.3678970  32.7504802  61.6781378  55.3457832  13.5393941
  61.0265064  55.3519440  14.2405152  62.3826933  55.9075356  13.8622904
  78.5174656  67.0968723  38.4579229  77.6543379  67.0526314  38.8693666
  78.3966875  67.6822853  37.7103019  13.2807589  30.0225949  13.8128209
  12.9742134  29.9288321  12.9108953  12.5061178  29.8506522  14.3481708
  51.0766220  12.0700693  34.5962143  51.9425774  11.7206407  34.8065686
  50.7103586  12.3277676  35.4421902  42.9239416  16.6986001   1.4462082
  42.5494051  16.5729141   0.5743383  42.2915030  17.2551703   1.9006103
  35.1482105   7.6153266  17.1744752  34.4655514   8.0810934  16.6914964
  35.8707976   7.5363767  16.5516865  36.4115715  53.3948278   5.9152967
  36.6734076  53.0925751   5.0456309  35.4829574  53.6087227   5.8249921
  27.3813105   9.6041012  14.6317160  27.9795599  10.0225520  14.0126634
  26.5275264   9.9915028  14.4388306   1.5442887  75.4942465  14.3444979
   2.3623411  75.3828096  13.8601398   1.3459350  74.6213961  14.6836376
  46.4285135   7.0696414   5.4791361  47.0682716   6.8922895   6.1686921
  45.6349945   7.3263329   5.9488934  17.8111398  29.2720675  24.4090819
  17.3611748  28.8898468  25.1625204  17.2407722  29.0774250  23.6654234
  65.0423861  35.6079769  39.4045305  65.6573105  34.9412799  39.0985727
  64.5545292  35.1792049  40.1076555  33.8537908  64.5948362  19.1331458
  34.7748280  64.4923687  19.3727767  33.8756537  64.9674129  18.2517028
  13.1609690   4.6652812  64.7120667  12.9325950   4.5555004  63.7890148
  13.7205982   5.4416430  64.7296476  14.1763806  60.8435678  16.8051302
  14.8114324  61.5334034  16.9976604  14.7000349  60.0440979  16.7516065
  40.4522753  26.1444998   0.0596704  40.9793711  25.3531361   0.1698683
  40.5814219  26.6333961   0.8724010  48.9169455  17.3251629  26.1398482
  49.4602251  17.7324009  26.8145633  48.0213737  17.4192488  26.4643836
  50.1040316  28.2788515  21.5542960  50.5630493  27.8143930  20.8544302
  50.3643179  27.8233123  22.3549008  51.2091494  17.0677304  15.3369915
  51.8354368  16.6339552  15.9165084  51.7352724  17.3631215  14.5939088
  72.7406597  22.9972124  39.5648575  72.7810907  22.1138883  39.1983366
  73.1047630  23.5577273  38.8796687  47.3905563  47.4728870   9.2118102
  47.0652246  46.5734100   9.1752589  48.2161665  47.4096394   9.6920198
  37.1056867  53.8161802  40.5220699  37.0762801  54.0522051  39.5948911
  37.3205543  54.6339750  40.9707022  52.5613499  63.9439058  15.7055533
  53.0705261  64.6622610  16.0809767  51.6588068  64.2627048  15.7089651
  15.3791761  68.5153866  63.8397121  15.8885705  69.3129253  63.6958885
  14.4895387  68.8263607  64.0072584  28.9350057  22.4637198  31.0567403
  28.2600951  22.9000473  31.5766883  28.8581824  21.5390754  31.2920260
  51.6595316  40.0541162   8.5784805  51.3386965  40.6860209   7.9350621
  52.3086834  39.5362020   8.1024551  10.5680287  27.5121140  11.2001324
  10.4266512  27.0574713  10.3697431  11.0322285  28.3135581  10.9583938
  39.6633840  14.3535590   5.3537005  38.9005065  14.4977236   5.9135789
  39.6386409  13.4183252   5.1513183  24.6337342   3.8314289  58.0027771
  24.1049767   4.5200235  57.5996828  24.7721362   3.1944424  57.3018312
  32.7767777   1.2330454  65.0915956  32.7670336   1.3334203  64.1397238
  33.0853558   0.3383601  65.2349424  78.0680895  38.7524343  32.7576828
  78.0360365  39.2081642  31.9165444  77.4919891  39.2614508  33.3279848
  81.4474297  75.7919598  12.2969830  81.0818863  76.5153313  12.8062367
  80.7220650  75.1744795  12.2032189  65.1158667  29.3730569  19.2397702
  64.5808840  30.0868869  18.8926780  65.9913874  29.5378351  18.8897038
  80.9907246  21.5717316  20.4282069  80.1813602  21.4445210  20.9231472
  81.6125774  20.9618449  20.8251548  56.7919254  47.4922895  21.0001016
  56.4441347  46.7548418  21.5015459  56.0155821  47.9605961  20.6931591
   0.8602754  66.6014624  53.8407755   0.4604882  66.0430193  54.5075178
   1.0774614  67.4101734  54.3045092  21.5858746  49.5850086  53.3135366
  21.2739587  49.2183161  54.1408730  22.2384405  50.2362061  53.5710812
  78.9864445  62.1931076  58.4811783  79.3065214  61.5226316  57.8776503
  78.1977701  61.8115234  58.8666868  52.2433758  13.1673455   1.1733684
  52.7601337  13.5716534   1.8703106  52.5992155  13.5377955   0.3656697
  31.6487527  24.6766829  19.1983199  31.7709708  25.5183387  18.7591088
  31.8380404  24.0246844  18.5235596  55.3396606  23.3459687  19.1094887
  54.7801971  23.2947135  19.8844767  55.7328701  22.4760342  19.0399885
  38.3956003  38.1592822  20.6983519  37.6362705  38.0524063  21.2712646
  38.2178259  37.5829649  19.9550569   1.9371480  29.3911624  59.1572189
   2.7100241  29.9060583  58.9253235   2.2228223  28.4810901  59.0772724
  27.4212503  23.1884956   5.7539487  27.3093987  23.1619215   4.8036781
  26.5423965  23.0397058   6.1028147  13.4258616  53.2692146  31.1532521
  13.7010920  53.3171368  32.0687747  13.9296699  53.9553308  30.7154679
  58.2327604  31.1922956  13.2865524  58.1862020  31.2074852  12.3306060
  58.2919264  30.2631211  13.5087323  38.3613038  43.5765076  15.7857871
  38.7925005  43.2850742  14.9824405  38.3970857  42.8161955  16.3661993
  21.7239618  24.4224596   9.8126709  22.3512411  24.7335696   9.1600114
  21.5832400  25.1748943  10.3873622  30.0317931  75.2120686  18.0728054
  29.7532082  75.3644276  18.9758062  30.0654101  76.0851955  17.6819718
  54.3970728  22.4848819   5.9639639  54.8055649  22.0931983   5.1919848
  55.1307678  22.8214574   6.4784002  26.9692540  37.4109626  12.4596393
  26.8205690  36.7441535  11.7891967  27.7787685  37.1393275  12.8922296
  29.9647379  28.4484792   8.9687258  30.6251073  27.7660084   8.8488317
  29.9829316  28.9456701   8.1509840  55.6102562  38.1886363  64.7548056
  56.1120129  37.3794460  64.8532057  56.0988522  38.6961198  64.1067600
  66.4679575  20.4671073   6.7722595  66.0271454  19.6188796   6.7229921
  67.1553993  20.4187202   6.1079448  61.1705160  77.1537161  26.9635034
  61.2745905  76.8108368  27.8511024  61.9509935  77.6891136  26.8205190
  62.4621725  42.5326061  48.7185478  62.0250416  41.9456053  48.1016350
  62.5974131  43.3413887  48.2247734  28.8671136  20.5806875  25.7429862
  28.7856960  20.3985333  26.6791606  28.2020140  20.0279307  25.3327012
  68.4945011  41.8741560  19.3433440  68.4538603  41.1106586  19.9192381
  69.4104242  41.9186401  19.0688658  49.0123224  46.2650681  51.3898563
  48.1660509  46.1118793  50.9696341  48.8039255  46.7865324  52.1650171
  48.5088301  18.2940018  11.6848302  48.4810638  18.5966289  12.5925076
  47.6409388  18.4993613  11.3372326  35.8457112  25.1707458   6.9682002
  36.0242939  25.7977414   7.6690680  34.9090338  24.9883223   7.0429564
  24.6075034  68.2834291  49.6433258  23.8488936  67.7081251  49.5444822
  24.9455094  68.3890200  48.7540388  59.2156219  48.2521534  60.6488895
  58.7324333  48.8317728  61.2377882  59.0615082  47.3740673  60.9973907
  23.5867000  56.5583324  31.9058037  22.9062533  56.0948753  32.3940992
  23.4481382  56.2972355  30.9953880   5.4638344  63.8663101   7.4945557
   5.3790176  64.4826412   6.7671102   4.6183413  63.9055967   7.9415786
  24.7675252  23.0366635   6.6286570  24.4884467  22.3042202   7.1780860
  23.9512849  23.4190416   6.3065267  13.9497054  43.9396858   4.9299976
  13.7713158  43.3167887   4.2254364  13.3080685  43.7254763   5.6072330
   5.2032506  57.4471569  21.8934965   4.9502692  57.4357700  22.8165889
   4.7976142  58.2404804  21.5437484  79.7047528  65.7071254  67.1398271
  79.0308865  66.1226079  67.6778878  80.2419337  66.4341781  66.8250850
  30.3214025  55.4059935  33.8621521  30.5805469  54.9274874  34.6496224
  29.4044828  55.6359577  34.0124965  15.9972763  31.4683414  64.6513414
  15.3573859  32.1122885  64.9548292  16.0096836  30.8011985  65.3376389
  58.8359213  40.3363609  49.7226095  59.4684839  41.0308027  49.9065971
  58.0195236  40.6459522  50.1148796   0.5810902  76.6884279  24.6058273
   0.6139429  76.5813208  23.6552072  -0.1061566  76.0863066  24.8910880
  71.2683249  30.9870791  51.6297340  70.4953098  30.5613518  51.2590170
  71.6785669  30.3110361  52.1690798  66.5387726  28.1277823  64.3024349
  67.4006891  27.7632260  64.1013622  65.9318733  27.6175427  63.7661839
  57.0401525  17.6596439  20.5585027  56.6097832  18.5067523  20.4426408
  57.1522045  17.3242760  19.6690059  51.5441990  16.1570394  33.5348201
  50.7271862  15.7025921  33.7402415  52.0921564  15.4896855  33.1217599
  31.7551160  75.6413555   6.1011606  31.2007284  75.8585310   6.8506420
  31.1921835  75.1182652   5.5304474  11.0559547  56.4243841  57.8529739
  10.6916440  56.2814903  58.7265205  11.1489892  55.5454206  57.4855471
  44.1696072  42.6030111  56.2193441  45.0704241  42.4565411  55.9307194
  43.8078117  41.7238331  56.3306236  34.2823124  28.0550408  32.8048873
  33.6070466  27.8840303  33.4613967  34.5382023  27.1870875  32.4927855
  74.2563820  70.1309824   4.8891616  73.9483929  70.6885099   4.1746393
  74.1736650  69.2396450   4.5501855  36.6081524  31.9279265   5.3033775
  36.8321991  31.2013388   4.7219113  36.8653512  32.7115488   4.8175600
  56.7446566  16.5603983  25.3331494  56.2818766  16.7127252  24.5092177
  57.3179245  15.8156300  25.1517200  76.5417528  71.9869804  60.4172611
  77.1282434  71.5078640  59.8318481  77.0633698  72.1417665  61.2047815
  58.9759493  35.4442620  42.9672813  59.8817110  35.7230496  43.1018305
  58.4708309  36.2572503  42.9791975   1.2423084  10.2387106  10.1027179
   1.8028104  10.9489954  10.4150748   0.4085767  10.6630063   9.8999941
  51.9671631  51.2681198  10.9246039  52.9015112  51.4613819  10.8479619
  51.6902637  51.0661268  10.0308704  68.1215000  64.3234873  64.7188139
  67.9024792  64.6137094  65.6042671  67.6808977  63.4786034  64.6278381
  26.1595106  60.2993059  15.9012628  25.7798052  59.4813776  16.2222743
  27.0614529  60.2865839  16.2215269  77.8136015  28.3060646  47.1850967
  78.4427452  29.0185332  47.2982216  77.6623392  28.2678008  46.2406969
  73.6483479  33.2444644  35.2724695  74.5016336  33.6197996  35.4898667
  73.8234711  32.6649809  34.5310116  54.4635963  43.9334679  15.1670611
  54.5579624  44.0985966  14.2289460  53.7213993  43.3323908  15.2309859
  63.2156658  39.9502802  57.7455664  62.9777765  39.1273141  57.3185205
  62.7160072  39.9496341  58.5620022  70.5655479  34.3439627  64.5087385
  70.4232597  34.7710109  65.3534985  71.2760067  34.8424411  64.1050148
  29.9359679  69.1007471  61.3063049  29.4860578  68.3954382  61.7714453
  30.7628179  68.7110376  61.0222673   2.5004774  46.4233589  62.1720982
   1.7062390  46.6953182  61.7122555   2.7602029  47.1935892  62.6775932
  42.3280525   7.6382053  19.9236763  42.4974632   8.5006988  19.5446825
  42.9864359   7.5456673  20.6122994  59.5367002   5.5777407   6.5612173
  59.6102953   5.9462023   5.6808472  59.3014479   4.6609783   6.4182723
  53.6935854  34.0413165  48.7779713  53.1225443  34.1363096  48.0156565
  53.8451624  33.0987716  48.8477182  67.1625137  19.1569614  19.7552824
  66.8937778  18.5328293  19.0811372  67.4056768  19.9447918  19.2690420
   1.9799927  72.6728821  19.2750466   1.3125616  73.2686234  19.6154308
   2.2461960  73.0622005  18.4421015  62.3723221  61.6119671  67.2814417
  62.3790741  60.8934641  67.9138517  62.3967981  61.1798286  66.4276934
  18.3401740  61.5639305  10.4853857  17.5009978  61.9524622  10.7324874
  18.6850095  61.2000608  11.3008094  40.4248857  17.1132469  23.2074285
  41.3810635  17.0855951  23.2420325  40.1434898  16.6862524  24.0165782
  21.3019943  63.5251760  50.7307339  21.6654491  63.9343929  49.9454498
  22.0555305  63.4044361  51.3085222  53.1527185  71.4797497  66.9633913
  52.7272320  71.1073732  66.1910391  53.9540434  70.9664059  67.0662832
  41.1639357  43.7521935   1.2303810  40.6220627  43.6955738   2.0174003
  42.0395708  43.9593077   1.5568672  81.6522408  48.8800192   6.2977201
  81.0121727  49.3572426   5.7696944  82.4192047  48.8007212   5.7305318
  40.8329725  58.7570047  18.3030140  41.5295506  58.2401180  18.7077844
  40.8442163  58.4948397  17.3824847  30.0419760  22.0031476  58.2703114
  30.6429553  21.2581468  58.2649851  30.6129122  22.7713752  58.2799530
  37.5770164  38.4252524   2.7027646  37.2439981  37.8734112   3.4104389
  38.2105255  39.0034151   3.1277665  74.3139362  48.4650469   5.2196556
  74.5875406  48.5448647   6.1334395  73.7774611  49.2418528   5.0615424
  71.3780022  20.2148962   0.6645236  70.9837914  19.3852592   0.3952133
  70.7484007  20.8804226   0.3871955  55.0971365  25.9568548  18.1870973
  55.3470469  25.1475072  18.6328900  54.5264244  26.4069605  18.8099372
  80.5841255  68.6855555  26.4511728  79.9503613  68.0499315  26.1186600
  80.5696964  68.5639954  27.4005127  52.5945759  58.5306072  16.4123893
  52.1665049  58.4155560  15.5640090  53.4815168  58.8183212  16.1960769
  26.9991827  58.9640045  57.6980543  27.1889830  59.7309399  57.1576691
  26.0459447  58.9622593  57.7850199  34.6208715  43.0732727  16.7925417
  34.1277385  43.5071087  16.0962379  34.9669933  42.2805023  16.3827276
  63.8781500  53.3884811  66.4300680  64.4906378  53.7429380  67.0746231
  64.2050600  52.5073957  66.2482691  65.3972673  41.7849636   4.9790022
  64.8989534  42.5073099   4.5967263  66.3081074  41.9786835   4.7574678
  22.0504665   2.1076490  64.7774935  22.1734595   2.8579956  65.3589439
  22.5778961   2.3136927  64.0057421  61.3735390  47.8979969  11.6773117
  60.9434223  48.2042313  10.8789062  62.2247410  48.3358097  11.6738248
  70.2736235  60.5449724  48.2549906  70.5931902  61.3526440  47.8527784
  69.6128225  60.8355951  48.8835669  54.5767927  46.0782862   2.4605653
  53.9362335  45.6690931   1.8787745  54.2889833  46.9884443   2.5313610
  28.9024234  27.3992133   2.3641992  29.2510247  26.5827894   2.0062006
  29.2204714  27.4200487   3.2667753  70.2948380  18.9870405  11.5030503
  70.5165911  19.3988931  12.3381758  69.8952246  18.1519973  11.7464507
  57.4849176  17.6705813   1.5216659  56.7066240  17.3837185   1.0439660
  57.8028059  18.4273434   1.0292324  53.2354069  63.7018919  24.1266060
  52.3982143  63.4136963  24.4903088  53.5697031  64.3319225  24.7649908
  36.9713569  51.5713644  15.8591270  37.3054695  50.6882715  16.0164535
  37.3133659  51.8067169  14.9966478  32.8468466   5.7463676  17.8022158
  33.0527782   4.8471987  18.0577922  33.1913304   5.8274388  16.9128394
  35.3288937  25.1779628  63.1346416  35.9683204  24.7131371  62.5949144
  35.2984047  24.6804094  63.9517975  24.1651011  56.8181133  53.1012487
  23.4480762  57.3622990  52.7757311  23.7819195  55.9455442  53.1908655
  22.1694255  34.5769644  50.8031034  22.9295278  34.5953465  50.2216053
  21.4460087  34.8929071  50.2617359  13.1965744  70.9823418  17.8405559
  12.2888732  71.2860537  17.8321195  13.7116885  71.7716455  18.0075622
  22.2627449  47.4467516  17.7508080  22.6429653  47.0952559  18.5558653
  22.7446651  48.2585621  17.5928664  74.5495749   4.6355629  32.8009367
  75.4778576   4.5000654  32.9911137  74.4917202   5.5520242  32.5307822
  22.0998049  35.6892490  11.0574412  22.3393774  35.4817104  10.1542449
  21.2255621  36.0733509  10.9911215  67.5833130  58.8507700  25.4684663
  67.3290396  57.9894447  25.7996678  66.8678617  59.4294834  25.7319903
  21.4029860  69.4513464  11.4082932  20.5438590  69.6964121  11.0646701
  21.6675305  68.6996651  10.8779883  64.2598248   9.7220367  20.4930711
  64.0803862   8.7839317  20.4298806  63.6513758  10.1245487  19.8733914
  29.8538327  23.8839769   7.0285833  28.9560676  24.0615988   6.7480481
  29.7570086  23.3679104   7.8289157  21.4577055  41.1643076  21.0564923
  20.5546927  41.3318157  21.3262010  21.4894724  41.4412975  20.1407957
  52.9820728  23.9133835  23.7726283  52.0340061  23.8021016  23.8434219
  53.2660341  24.1207337  24.6629095  42.3629141  39.4229841   1.4645787
  43.0922890  39.4187713   0.8447203  41.5860271  39.5475292   0.9194459
  10.1259863  48.0252647  10.5047929  10.6665683  47.3867750  10.0396752
   9.2614114  47.6173019  10.5528748   4.1808358  19.1358173   5.0404042
   3.2394478  19.2668998   5.1537079   4.5146602  19.9981213   4.7929683
  71.6222143  44.8875237   2.6976439  71.9745064  45.7624054   2.5342432
  72.0304155  44.3363953   2.0299163  37.2786713  52.4702978   8.1809729
  36.9439960  52.7413368   7.3261267  36.8914104  51.6072226   8.3271295
  81.6246033  20.0065684   1.2260020  81.5974998  19.2242098   0.6751722
  81.4013481  19.6908462   2.1016234  56.0554981  47.0548344  59.1991043
  55.7507753  47.9029655  59.5216656  55.2863836  46.6669416  58.7816858
  31.9022202  44.1866922  21.2646365  31.7894053  44.8229265  21.9708300
  31.0247231  43.8335228  21.1179972  54.1962767  36.5118742  19.2618620
  53.4322262  36.5011644  19.8383546  54.2437410  37.4134469  18.9438331
  57.4974585  24.8940492  12.5077641  56.6224098  24.6748281  12.1876621
  57.9647446  25.2061200  11.7328525  44.2549038  13.4984529  62.3537588
  44.7928286  14.2499864  62.6028919  44.8369980  12.7447450  62.4503088
  49.7700357  27.6174474  10.1064253  50.2219820  26.8674564  10.4930651
  49.1346884  27.8830194  10.7712817  71.5247393  40.4627037  10.0810385
  71.9923306  41.1872911   9.6656364  70.8025169  40.8810377  10.5496824
  77.5524330  52.0679808  25.7895613  77.3891926  52.3442268  24.8877454
  76.7176962  51.7028618  26.0830379  50.4616213  72.0464087  20.1091027
  51.0496998  71.9193077  19.3646288  50.3096533  72.9910946  20.1357293
  48.1865025  43.7685394  16.6317785  48.0619955  43.9220428  17.5683498
  47.7883577  42.9124212  16.4743769  46.7495632  40.4218197   7.8296310
  47.4693012  40.9982586   8.0863911  46.0582352  41.0166979   7.5390911
  73.4084272  30.1784945   8.2335204  72.5823355  29.8703122   8.6061144
  73.1693172  30.5231237   7.3731202  55.9778404  17.7619016  52.0660782
  55.3491592  18.2854509  52.5629520  55.4371738  17.2214568  51.4900303
  60.7246447  15.8086038  63.5112858  60.8599281  16.3070822  64.3171692
  61.6081905  15.6063855  63.2035685  50.4321289   1.2783210  57.4034977
  49.6506500   1.4479975  57.9295540  50.8146763   0.4906227  57.7900457
  17.6330078  65.3110552  24.2800951  17.9341757  65.8113098  25.0385666
  16.7574298  65.6532431  24.0998054  76.4241028  20.6201458  57.5137520
  76.7892551  20.5003190  56.6370916  75.5375099  20.2642179  57.4546289
  72.1045685  53.7248945  34.1031814  71.9636011  53.9259291  35.0283527
  71.2395048  53.4760761  33.7776327  51.9590998  30.1970172  12.6177776
  52.2596216  30.6496072  13.4058642  52.6820707  29.6141005  12.3859370
  37.0012975   5.4654491  66.0637379  36.5424204   4.6841812  66.3724232
  36.3039875   6.0551709  65.7770061  67.9785538  55.6995535  39.0314221
  67.8195000  55.0342512  39.7009826  68.2949018  55.2066040  38.2743526
  20.6707263  46.3792896   7.4178278  21.0181308  47.2141027   7.1037751
  21.3394690  46.0528564   8.0198747  73.3194780  39.6322775  15.2003539
  74.2185259  39.9461865  15.2973568  72.7765512  40.3770828  15.4586637
  47.6827621  75.2663040   0.9643529  47.3142290  74.6262693   1.5732603
  48.0477715  75.9494257   1.5268008  16.4612067  42.9668474  24.8888397
  17.3493862  42.6555109  24.7143674  16.4251983  43.8306856  24.4780898
  33.9441133  27.9547620  15.3881037  33.0429316  27.8396463  15.0866914
  33.9527893  28.8228917  15.7912242  23.6027336  19.3895125  56.8145514
  22.7544475  19.6365619  56.4462996  24.0857124  20.2135372  56.8773699
  63.8155317  48.2937527   6.1391437  63.6817455  48.6679554   5.2683371
  63.7121868  47.3505449   6.0129780  44.5183945  27.6730061  21.6604328
  44.4131708  26.7269707  21.7613196  44.3509007  28.0271149  22.5338078
  79.4274378   7.0568240   5.4583710  80.3302765   7.3502749   5.5807984
  78.8937616   7.7814180   5.7845402  43.6338425  59.3146038  15.9089541
  44.3213367  59.8165655  15.4712105  43.1285095  59.9697351  16.3902831
  65.8342123  55.5681705  13.3145714  66.7183447  55.6401253  12.9549038
  65.3503418  56.2860155  12.9061568   5.8743930  71.2065363  63.6556292
   6.4602774  71.7190552  63.0985832   6.1422467  70.2986240  63.5135746
  17.2430670  76.5372944  32.8793597  16.3436568  76.5076637  33.2055736
  17.6862252  75.8205080  33.3333015   0.9388150  45.6411171  23.9623141
   1.4129716  44.9205208  23.5473990   1.5424913  46.3825703  23.9170289
  13.9410532  72.0668364  54.8768091  14.3405926  72.7949524  55.3526783
  13.7737322  71.4051580  55.5479383  54.0903044  23.0899787  21.4669991
  53.7907600  23.4237528  22.3126340  54.1414499  22.1418643  21.5882254
  79.6056843  54.8407412   7.2857964  79.4507170  55.5118799   6.6211247
  79.1753531  54.0583229   6.9410187  71.7355108  48.8496971  40.6798744
  72.1145773  49.5175552  40.1084661  71.0305786  49.3025398  41.1427307
  76.6304111  69.3383980  42.0929527  76.6882277  69.3634892  43.0480766
  77.3834801  69.8480225  41.7939472  12.9796588  32.5994039  38.6120939
  12.1206331  32.9775167  38.8000751  13.5971165  33.1657553  39.0749383
  74.9707937  31.7479563  16.8499255  75.2198410  32.6219845  17.1503901
  75.3379917  31.6841078  15.9682691  64.3424845  35.5555844   6.2969548
  64.1387081  36.1458421   7.0224231  64.2586279  36.1001992   5.5142713
   9.1628361  44.1050243  33.4745049   9.0625006  43.4248543  32.8085160
   8.3097112  44.1447020  33.9067483  39.1085124  43.0811262  13.0521774
  39.9375558  42.8904676  12.6133502  38.5985780  43.5637188  12.4015594
  63.8037300  11.5067434   0.7575416  64.0516472  12.4027658   0.9853853
  62.8580618  11.5486622   0.6154706  76.2027645  47.3421478  29.6103644
  76.4339113  48.1068802  30.1376081  76.6945267  47.4545717  28.7968779
  42.2290277  20.0386453  33.4567571  42.2943544  19.5086741  34.2511725
  43.1292915  20.3071427  33.2732558  27.6339412  10.1259756  43.6712837
  28.0922127  10.8370745  44.1191196  27.8578138  10.2409172  42.7477551
  71.6986656  47.2672367  12.2098029  71.8139267  47.7267790  11.3780761
  71.1682796  46.5016413  11.9889438  25.7191137   0.0632242  53.7812090
  26.6574910   0.2346329  53.8605785  25.4898790   0.3844551  52.9091501
  51.4989281  34.7124672   7.3957926  51.4394569  34.2974710   6.5352851
  51.3860893  35.6465125   7.2195554  67.3249102  33.5037947  54.4333363
  66.5422773  33.2550335  54.9251080  67.1003056  33.3263493  53.5199356
  58.6589241  23.6492133  19.7745228  59.0948057  22.8392601  20.0394964
  58.6406326  23.6096048  18.8183177  41.6941881  68.0241203   4.0966660
  40.9318066  67.9513741   3.5224622  41.6357088  68.9070415   4.4617200
  32.8660369  45.8917809   6.6858739  32.6391816  46.4487982   7.4305212
  33.8151836  45.9812927   6.6001934  78.1478930  73.3427525  56.5245390
  78.6870241  73.0697918  55.7822037  77.4123287  73.8092613  56.1276150
  59.1294146  25.4893017  39.1364241  58.7328005  24.8149800  39.6879840
  59.9911356  25.6401873  39.5248771  77.5965500  27.6912141  13.4543014
  78.1434584  27.6695037  14.2395735  76.7161465  27.8772569  13.7806571
  58.9946318  61.4734411  11.9897628  59.4179726  61.5271235  11.1329472
  59.2070532  62.3045969  12.4143660   3.2509351  72.1061897  57.2682905
   3.9213514  71.9559145  57.9347658   2.4440275  72.2387028  57.7658558
  60.6242990  48.6563873  66.4418888  60.8866549  47.7471304  66.5855885
  61.3435411  49.0363216  65.9373379  26.9097853  64.4664049  64.4695282
  27.5670242  64.9401712  64.9792480  26.7291760  63.6796284  64.9839115
  20.6458735   6.8284887  49.0348291  19.9912012   6.3149959  49.5080709
  20.9711432   6.2357819  48.3572340  54.2053509  63.2418060   3.7694606
  54.5992994  62.5139666   4.2503813  53.3146238  63.3027363   4.1146055
  45.2590179  11.6286325  22.9045939  44.7162390  12.3127437  23.2965279
  44.7188997  10.8396184  22.9488516  67.8572607  75.5591393  63.3652544
  68.6955881  75.8656502  63.0195761  67.3570824  75.3046656  62.5898218
  42.8165674  52.8566504   9.1090560  42.2522211  52.8735876   9.8820126
  42.7019405  53.7190533   8.7098676  22.5145745  45.3263378  11.1134696
  22.3511076  45.2730083  10.1718402  22.4068141  44.4282198  11.4265156
  40.6930113  11.4496577  14.4416428  41.0007620  11.3348985  13.5425591
  40.3844929  12.3551428  14.4754577  53.6511326  45.7471418  38.7192297
  53.8160610  45.3640985  39.5808029  54.2117023  46.5224934  38.6905384
   5.3792154  35.5051471  67.4469632   4.7728883  34.8827363  67.0454597
   4.9381887  36.3513900  67.3721372  77.3468447  41.1860132  25.1428485
  76.9734192  41.0504580  24.2719817  77.9141426  41.9506025  25.0438356
   0.5580738  65.7095051  47.8244686   0.5805457  64.7526407  47.8127813
  -0.0962175  65.9256220  48.4888697  61.3094425  12.0494604   6.6368484
  61.6241693  11.5026963   7.3567289  61.1823225  12.9129732   7.0298094
  36.7435193  32.9047775   9.0052348  37.1010542  32.0642877   8.7189126
  35.9877419  32.6722860   9.5446604  11.3514948  46.4246750  18.0147922
  11.0050321  47.3115587  18.1129646  11.1568463  46.1905909  17.1072972
   5.0789070  32.2924757   0.1367642   4.3321857  32.7938032   0.4643472
   5.7512933  32.9509282  -0.0380776  34.1774821  60.3280497  12.6324582
  34.3415642  60.2417517  13.5715330  33.9411783  59.4450188  12.3484683
  68.6586332  63.1415987  24.1057110  68.1434107  63.8766527  24.4380808
  69.4267130  63.1101799  24.6760583  69.4877052  38.2781339  49.6022463
  70.4245567  38.4596276  49.5273638  69.3071270  38.3342195  50.5405855
  62.0936871  74.1675282  55.6698751  61.6407347  74.6361589  56.3709116
  61.3932180  73.8689423  55.0898600  50.4590178   9.5023334  39.4012547
  51.0511017  10.0592613  39.9067235  50.0818539   8.9052403  40.0473642
  56.0090780  54.9709129  14.6385586  56.1513329  54.9614096  13.6920357
  55.3295231  54.3129444  14.7852433  52.4040604  38.7384343  15.7648587
  52.4323511  38.4068894  16.6623592  51.9021893  38.0813909  15.2825165
  64.1528130  58.3278561  62.5469017  63.9809942  58.6169815  63.4430695
  63.3148289  58.4331942  62.0964336  26.5100884  42.5898409  20.5311275
  26.1513829  42.8242922  19.6752119  26.6655731  41.6469908  20.4755545
  51.9047785   1.1807474  15.9657693  52.6946449   1.2810890  15.4344773
  51.4831591   0.3932740  15.6217420  47.8031301  53.7991238  16.2343121
  47.9486227  53.1530380  16.9254243  47.6608515  53.2772112  15.4446292
  63.7851334  51.7670965   5.6896687  62.8761339  51.5938616   5.9344965
  64.2173481  51.9884014   6.5145624  15.8058512  29.1508818  42.4403191
  15.0069916  29.3709826  42.9194975  15.4952109  28.7697506  41.6190529
  26.7766023   9.5664513  51.3349199  26.0719895   9.2396194  50.7755184
  26.3409400   9.8083389  52.1521854  16.7693399  72.2359798  66.6776953
  17.0140718  72.0972774  67.5926270  16.2676929  73.0511663  66.6848828
  56.4311981  36.1993623   5.7555342  55.5607176  35.9426999   5.4511952
  56.2646961  36.7508173   6.5199989  45.8282042  36.5251303  66.6533852
  46.5466547  35.9072423  66.5182066  45.5810785  36.8018723  65.7710171
  68.5499859  52.4756527  54.5557451  68.0564022  52.8765345  53.8402700
  68.5307312  51.5380287  54.3641043  72.0054150  42.1426487  51.3846397
  72.8138733  41.6675091  51.5766430  72.2977877  42.9581404  50.9775543
  19.3187499  30.8526826  57.8658056  19.1895473  30.4435754  58.7214756
  20.2059674  31.2100530  57.9027033  12.0806599  42.7060127  32.5029826
  12.2724867  43.5358286  32.0661283  11.1775315  42.5080538  32.2551823
  76.2598133  68.3383846  52.1734238  75.9442282  67.4431705  52.0500040
  76.4199066  68.6603403  51.2863255  19.5079565  17.1150923  49.8629284
  18.5582030  17.0094109  49.8078680  19.8536110  16.2275481  49.7679615
  68.5299826  16.4359224  54.2560863  69.3296719  16.6644812  54.7298813
  68.3628511  15.5240011  54.4942045  30.5585361   3.5548338  35.1961088
  29.9961257   3.7639669  35.9418893  31.2676001   3.0317721  35.5700970
  42.3293304  43.7286854   7.6216340  42.0921373  43.4450197   6.7387378
  43.0672836  43.1688309   7.8629261  54.7655593   4.4419767  66.6596147
  54.9944316   4.0139724  67.4846381  54.1489231   5.1300336  66.9097422
  17.5135529   6.4425665  19.1686332  18.2240081   7.0831585  19.1350377
  17.9244256   5.6467044  19.5062995  66.8672037  61.2432671  12.9511201
  66.7515993  60.7238817  13.7468028  67.5400114  60.7761192  12.4558091
  75.3610039  66.7735338  16.3479364  75.0134230  67.5839615  15.9756184
  76.2689543  66.9813871  16.5685201  63.8339090  65.0348997  20.1293826
  63.6233187  65.8053303  19.6018207  64.7871971  64.9640036  20.0798821
   0.7806408  31.8591142  15.3486335   1.5185088  31.2567425  15.4431486
   0.1594018  31.3911819  14.7906613  22.9428387  37.9133463  25.6573844
  22.0358276  38.1059813  25.4197788  23.4236121  38.7100244  25.4329062
   9.5693964  40.9507036  29.0288115   9.8340255  40.3658772  28.3187532
   8.7152588  41.2864304  28.7568426  61.0950518  17.2158515  50.9325027
  60.9785748  17.7586412  50.1527309  61.0806179  17.8367472  51.6608667
  76.6590500  68.3671904  44.7233200  77.4943161  68.8041353  44.8895788
  76.8936443  67.4515915  44.5720816  38.4908843  55.4670477   4.0770221
  38.9303589  54.6227264   4.1780850  37.7561355  55.4294348   4.6893615
  81.9850341  62.5256014  10.0726020  82.3661784  63.3633280  10.3356254
  81.8540333  62.0533752  10.8948374  27.1926713  29.1198373   6.4726937
  26.4166427  29.0234184   7.0247030  27.1465778  28.3826923   5.8638215
  55.5859470  67.3626471  33.9305234  54.6639442  67.4960613  34.1503930
  55.5683041  66.9245911  33.0796266  18.0715179  57.3650312  23.9023399
  18.3238804  56.8258762  23.1527686  17.4843919  58.0258751  23.5351920
  35.4715133   3.3117008  67.0821333  34.5450044   3.2085019  67.2992992
  35.7711387   2.4246344  66.8832111  36.7052317  74.7694921  52.0139456
  35.8667016  74.3830347  52.2664356  37.2460246  74.7035217  52.8009796
  66.4723873  57.4982500  32.0083499  66.8741035  58.2254124  31.5328622
  67.1288347  56.8021631  31.9805837  41.7211199   3.6142224  54.2128563
  41.2246561   3.1216925  53.5592794  41.1698008   4.3708825  54.4122124
  66.2132549  35.6833839  31.9539261  66.5053129  36.4472103  31.4564300
  65.5580330  35.2683902  31.3929462  55.0138712  50.3624296  49.4802713
  55.6067228  49.7740602  49.0127468  54.7369814  50.9977341  48.8199997
  63.1595945  17.7454579  27.5036263  62.9235697  16.9200742  27.0802283
  62.3682785  18.0083919  27.9736495  65.8931780  40.3504944  26.7194223
  65.5959225  40.0962782  25.8457828  65.7016087  41.2867069  26.7745996
  49.2916298  19.0714812  32.7816510  50.1660013  18.9402378  33.1483698
  49.4428539  19.5526850  31.9681358  56.2102079  63.8363886  31.5168810
  56.7475462  63.3097219  32.1085930  56.4731884  63.5553503  30.6404734
  74.5686150  43.1808758  13.1125331  74.6953917  42.5600195  12.3951089
  73.6740017  43.5010719  12.9969108  49.4955492  26.2537837  65.3198719
  49.6617270  26.9841886  65.9157944  49.2742968  25.5211639  65.8948040
  49.6386957  44.1521168  62.8513145  49.3784714  44.1602468  63.7724257
  50.3588057  44.7806597  62.8003120   5.5760854   3.4752998  10.2022398
   5.2311170   3.0958933  11.0104966   6.1699641   2.8078091   9.8587328
  66.4536810  44.7220564  25.3112960  65.9936714  44.3631411  26.0701132
  65.8010340  44.7169685  24.6111131  41.8693209  52.6074076  37.6918769
  41.2908077  52.9567766  38.3697391  41.8659019  53.2755089  37.0064116
  75.5492449  59.9674416   9.4839501  76.2508965  60.5195808   9.8290032
  75.8776140  59.0736866   9.5819682  80.7064533  38.9431334  22.6652074
  80.3691578  39.8378801  22.6217103  81.1347008  38.8898754  23.5196066
  37.1857882  16.6508794  30.8344555  37.9677367  16.1901164  30.5303407
  37.3919010  16.9044006  31.7341661  53.2634544  75.9086895   4.3147975
  54.1511726  75.9580421   4.6694189  53.0676031  74.9721003   4.2889163
  68.4770536   4.8778293  25.6549525  67.8603315   5.5688375  25.8966017
  68.1801653   4.1101855  26.1436367  71.5634108  75.7973862  24.9749374
  72.1601772  75.2820539  25.5176473  70.7108688  75.3781939  25.0919199
  82.2049236  55.7719326  64.8566437  81.8798161  55.2524948  64.1213036
  82.1248627  56.6793871  64.5627975  61.4183092  20.8996344  56.2186050
  61.5934610  20.0657749  56.6547632  60.6455660  21.2457657  56.6650343
  46.4421463  63.4860182  37.1491957  47.3799562  63.3054161  37.2134113
  46.2390900  63.9828444  37.9417634   7.7155715  49.5289516   2.0501867
   8.0137509  50.4359627   1.9819765   7.2911990  49.4801188   2.9067817
  81.2047768  24.1327858  22.1290612  80.4572105  23.6057377  22.4111986
  81.4593410  24.6246243  22.9097795  38.4574151  17.0424843  53.6220646
  38.5609341  16.3499653  54.2746973  39.3509054  17.2475195  53.3466244
  71.3584948  54.8420620  15.8708382  71.8827009  54.7180748  15.0795925
  71.5902090  55.7189894  16.1766791  51.9572496  42.3439026  11.8171680
  51.4956760  42.5132322  12.6384544  51.8740177  41.3993979  11.6859746
  76.7916822  54.9850988   0.3120026  77.0172167  54.0741634   0.5005983
  76.5778065  55.3606462   1.1660820  43.5518265   0.8958818  31.0860705
  43.9834023   0.4206096  31.7960644  42.7140474   0.4471594  30.9720421
  48.0453396  71.4065838  23.5627079  47.2990274  71.7505836  23.0718851
  47.6525688  70.9458351  24.3041086  71.0853338  67.8410149  17.9962671
  71.1504841  67.0270777  18.4957576  71.9714260  68.2027531  18.0111694
  44.4143105  43.9530087  58.8048649  45.1296473  44.5888615  58.8196230
  44.2683315  43.7782526  57.8751469  58.8232851  63.0977726  37.4683261
  59.5972204  63.5533428  37.7995610  58.1523085  63.2506752  38.1336379
   3.4295794  55.4892206  49.3330050   3.8627124  56.0861731  49.9431467
   3.4269974  55.9592867  48.4991789  80.8787918  11.9655275   6.6793638
  80.1963234  12.6366639   6.6722411  80.9935570  11.7504549   7.6050007
  53.0446815  74.2382669  26.1441469  52.7366161  73.3340025  26.0838747
  53.9923716  74.1769266  26.0243464  31.3662052  38.7042236  26.1573362
  32.0637059  39.3069816  26.4150310  30.9412122  39.1331863  25.4146385
  21.9405293  66.3087416   0.3581620  22.6337385  66.8232727   0.7716195
  21.2195182  66.3289118   0.9874211  56.3148355  71.5182066   8.2150024
  55.8521605  71.1022520   8.9424270  56.2227440  70.9016037   7.4886751
  58.9694357  57.2198915  39.9600792  58.6475325  57.6283073  39.1564560
  59.5051384  57.8962708  40.3745270   1.2857275  69.2122078  66.9005680
   2.1537042  69.2945862  66.5055180   1.4592308  69.0114737  67.8202581
  73.4302902  44.7807789  18.5886192  73.5311079  44.9117565  17.6457965
  74.1541433  45.2718210  18.9773989   5.7841080  30.4864335  23.6541080
   5.8134586  30.8793211  22.7817488   5.2976054  31.1173344  24.1846848
  30.5745363   2.0044999  54.8783398  29.6822548   2.3507012  54.8637867
  31.1285973   2.7754223  55.0005198  10.7984996  23.3799934  62.5503588
  10.0461948  23.9575100  62.6797533  11.2812412  23.4269691  63.3755779
  14.2108047  14.8854065  12.6862395  14.4142962  14.0628767  13.1315112
  13.4384620  14.6865201  12.1569335  46.8031740  51.8201733  13.9676464
  47.7321768  51.9777346  13.7992561  46.3617182  52.1178865  13.1722093
  35.4992795   5.2391177  28.2222199  35.7301903   5.3104758  29.1484070
  34.9968410   6.0329312  28.0387926  81.6725826  15.1116645   1.4559366
  80.9584713  15.0821769   2.0926523  81.2769127  15.4874301   0.6695040
  65.6321907  64.0091944  16.5389192  65.4377270  63.2715511  17.1171069
  64.7788572  64.4035101  16.3584578  52.8482342  42.2901583   4.0735039
  52.2274446  42.3686838   4.7978538  52.5282669  41.5460587   3.5634407
  50.0969696  59.2730093  26.1655593  50.0243759  58.4436464  25.6931973
  49.9099541  59.0468836  27.0766711  31.8853807  67.7265644  12.4685955
  31.4872527  67.3432255  11.6870737  31.5775013  67.1762419  13.1887257
  72.9970646  59.1669273   0.7763858  72.7286911  59.8132706   0.1233549
  73.9156151  58.9892483   0.5741026  44.7132587  34.2820811  19.5558429
  44.3425083  33.6640716  18.9258897  45.5936241  33.9485359  19.7288668
  62.8995752  53.2294559  26.9735694  62.3713398  53.9876890  27.2231293
  62.4831247  52.8989458  26.1776018  12.0530844  59.6697283  12.4741471
  11.1364162  59.9034262  12.3280728  12.0319259  58.7355852  12.6819038
   0.9045026  75.3336048  50.8366442   1.1248712  76.0374451  50.2265024
   1.6618782  75.2756643  51.4191008  62.3346472  75.1320887  64.6949434
  61.7488289  75.7268095  65.1633024  61.8156910  74.8187923  63.9541626
  54.8885727  21.0067797   3.5000423  54.9302769  20.4270697   2.7394968
  55.3242350  20.5177712   4.1981122   9.9902868  62.9827356  27.1670938
   9.4404203  63.1457806  26.4007425   9.9770987  63.8082933  27.6513577
  52.9278898  53.2003832  23.1169701  53.5260868  53.9334106  23.2621026
  53.0429554  52.6415539  23.8855410   8.3514094  45.9428072  36.1871982
   7.6664448  46.5986919  36.3170838   9.0861213  46.4334869  35.8188748
  68.1791353  34.5982194  30.1415277  68.4545946  34.9102759  31.0034871
  68.0295944  33.6605811  30.2627945  51.5684652  44.1964626  20.3897619
  51.7864656  43.8692093  21.2624645  51.2814808  43.4207964  19.9078798
  81.5696621  63.1784916  34.1482735  82.0044136  62.8851223  34.9489975
  80.9032631  62.5123644  33.9797187  16.9030833  56.7513323  41.2016296
  17.0387304  57.2318602  40.3849792  17.6063192  57.0530033  41.7766809
  46.0350943  38.6374593  55.1826668  46.2457466  38.1512332  55.9798145
  45.4132080  39.3069458  55.4677677  64.2156696  52.0273161  24.0485168
  65.1054621  51.7331362  24.2433476  64.3339920  52.8493786  23.5726547
  44.0114212  65.2769756  28.9727163  44.1395235  65.7624817  28.1577921
  43.9877462  64.3587828  28.7032866  30.8201766  18.2549822  49.5542479
  30.9273148  18.3936965  50.4952669  30.2258873  17.5075018  49.4884634
  65.9374285  62.2350836   5.9673995  65.4369545  62.5582075   6.7166334
  65.3029013  62.2028399   5.2514619  43.0200624  76.9496536  35.9824228
  42.9722023  76.0278320  35.7290697  42.1367407  77.2858524  35.8309412
  54.5119715  61.9258976  15.9977245  54.9097586  62.1513367  15.1567900
  53.7612104  62.5148869  16.0731149  13.5468554  54.6018600  17.3093069
  13.4203565  54.2670536  18.1970775  12.9116571  54.1206169  16.7790627
  49.5484972  62.4430275  32.7234864  49.7705078  61.5122604  32.7483153
  50.0750732  62.8335476  33.4209418  11.2946737  21.2820983  50.1668119
  11.9201493  20.8809042  49.5634460  11.5374684  20.9388256  51.0267258
  44.6716595   7.9151809  50.0288773  43.9658165   7.9322803  49.3825626
  45.4705477   7.8282446  49.5088291  49.9370098  72.8220272  44.8773193
  49.7562075  72.2113085  44.1627789  49.1169500  73.3012199  44.9961090
  77.2444916  16.0498357   8.6346227  76.5106392  15.7541096   9.1733646
  77.2704840  16.9977820   8.7648243  26.3882279   4.7547510  60.0674772
  25.6723905   4.4293097  59.5216799  27.0427990   5.0670725  59.4428015
  76.5763569  52.9771090  33.2798338  76.0022497  53.7252998  33.4436798
  77.4348927  53.3660316  33.1128621  74.4129801  51.9268322  31.9059825
  73.8854790  51.7692137  32.6890087  75.2684069  52.1930265  32.2430539
  14.6932137  39.7944331  36.3688231  14.7857332  38.8470387  36.4694047
  15.5292833  40.0788736  35.9996176  51.1445570  73.3852434   6.0464472
  50.9016562  72.8426790   6.7966837  50.4108620  73.9909506   5.9413564
   8.9038879   8.0922860  64.1115713   8.4505534   7.7083826  63.3610106
   8.6875677   9.0238476  64.0711927  81.7491531  44.9367905  52.8996325
  82.3333549  44.8520613  53.6531353  81.1100769  45.5980587  53.1652164
  43.1261492  12.7719438  55.2224827  43.6655712  13.5558367  55.1187038
  42.6847219  12.8945088  56.0629272  48.4831238  69.9709988  28.5599875
  49.2772675  69.4384909  28.5152721  47.8162289  69.3779135  28.9060020
  17.1303439  20.1974273  64.5288563  18.0770087  20.1963520  64.6704769
  16.7795098  20.7073236  65.2590275  38.3911514  68.5811758  29.4149041
  39.0964818  69.1706657  29.1479874  37.7611613  68.6202240  28.6953068
  57.4074841  74.6609020  54.9036932  56.5129757  74.7861910  54.5868492
  57.3098993  74.1252136  55.6909370  62.9818916  61.1338139  36.6224289
  62.9270649  60.5080938  37.3447180  62.2436953  60.9104633  36.0554981
  63.2730389  68.0169201  59.1373634  63.9775991  68.2021379  58.5164642
  63.6007404  67.2851276  59.6601677  20.5980659  37.5616789  12.5655997
  19.9785030  36.8905854  12.8519690  21.2110829  37.6488447  13.2955599
  43.3115053  62.8646708  41.1292791  42.6130104  63.4593487  40.8559799
  43.1040478  62.0365334  40.6963968  26.2665915   5.0544715  16.5795767
  26.8813443   4.3747059  16.3034832  25.7785320   5.2728242  15.7856297
   3.5950309  36.9646549  21.0840321   3.2037044  37.2010016  21.9250059
   2.9621777  36.3677931  20.6846786  34.0602636   9.5304531  67.0634127
  33.5293937   9.0047854  67.6618147  33.4248662  10.0605488  66.5822649
  50.4459429  53.3365250   6.9363499  50.0963116  54.1618061   6.6003436
  50.6528854  52.8273344   6.1526829   3.3371237  33.3667326  32.0840478
   2.7327597  33.5862947  31.3749862   3.2432160  34.0849447  32.7098131
  72.9020262  25.8165669  61.7847538  72.3064518  26.3567781  62.3040771
  73.3278990  25.2463508  62.4248457  54.8608685  46.4015198  13.4873247
  54.8308277  46.0435820  14.3745732  54.8245335  45.6331158  12.9177058
  69.6864414  38.1476831  52.5619316  69.6134520  38.4027386  53.4816360
  70.6208754  37.9861999  52.4315929  13.4487069  72.7393866  21.0472226
  13.8138223  72.7587318  20.1626039  12.7951956  73.4387684  21.0519505
  52.9902411  15.4082119  54.2526340  52.3156023  16.0746419  54.3828964
  52.8541946  15.1017165  53.3560944  74.6099901  27.8270507   3.7061661
  74.6303940  28.0219650   2.7692437  74.2268467  28.6082864   4.1050428
  14.3352878  11.1433065  22.1569967  13.5670745  11.0603404  22.7219701
  14.1690075  10.5361247  21.4359450  57.6134062  32.9274917  63.7806892
  56.7377090  33.2856464  63.6353922  58.1909943  33.4904909  63.2652712
  77.9986429  51.6689253  61.2975168  77.4846554  51.2784910  60.5906868
  78.8016129  51.1486435  61.3253593  80.0245762  32.6445079   8.0297434
  80.5853939  31.8697929   8.0688918  80.4186058  33.2570553   8.6508393
  16.6037095  63.8421917  44.3177843  15.9736907  63.9313889  43.6026955
  17.1106553  63.0615950  44.0943861  58.2977629  53.1413460  17.1199477
  58.9922523  52.8644609  16.5222478  58.6131620  53.9669609  17.4875307
   1.2013345  73.5257006  15.9882665   0.4843464  73.0730629  15.5441010
   1.9890134  73.0597448  15.7077634  74.1215897  75.7788658  62.0944309
  73.8840199  75.0226068  61.5578985  75.0361252  75.6260729  62.3321486
  28.2827592  48.1360054  33.9193916  27.8737330  47.4338055  33.4135818
  27.6179743  48.3880758  34.5602918   7.3933905  50.8463430   7.8688872
   8.2319188  50.5007839   7.5628000   7.3199981  51.7034769   7.4491620
  78.0743313  68.1915569  61.6369629  77.9215145  68.3685017  60.7087564
  77.3880100  68.6811495  62.0902824   8.0310756  -0.0393032   4.2531675
   7.4841523   0.3740842   4.9211621   8.9280438   0.1084884   4.5528963
  76.8454170  26.6084385  51.2513399  77.3747778  26.5266895  50.4580355
  76.9681454  25.7761908  51.7079926  64.6615314  37.9434681   0.5458126
  64.3750525  37.1524119   1.0023136  65.5990696  38.0002236   0.7302992
  39.3536544  70.6931162  24.3572783  38.6117792  70.0957346  24.2624569
  39.1082168  71.4631128  23.8443446  15.1740217  27.8676486  30.3525567
  15.3939939  28.7703466  30.5827284  14.2492378  27.7801347  30.5835295
  67.2981644  45.5337143   5.6232774  68.1721020  45.7336950   5.2879083
  66.7147636  45.6923199   4.8811746  51.7245054   6.6001242  60.6774473
  51.3673115   7.3234987  60.1623011  51.1623096   5.8548820  60.4658222
  70.5295753  63.1135941  52.1480608  69.5847797  63.2103157  52.2673607
  70.6829500  62.1705151  52.2055864  78.1185865  70.8001089  21.6892695
  77.6802158  70.1410389  21.1510420  77.7101660  70.7159996  22.5508666
  10.0990629  58.7408590  32.1396875  10.6442094  58.5679770  31.3721228
  10.3706455  58.0827379  32.7794909   1.5789099  62.6332188  13.8304460
   1.1842537  62.4259901  12.9833722   2.4948075  62.8237104  13.6277735
  19.5863914  67.9564571  55.2265263  18.6374009  68.0185986  55.1179552
  19.9045956  68.8446808  55.0651646  57.2296810  60.3344059  28.5915470
  57.9734707  60.8204126  28.2354450  56.8623829  59.8725700  27.8378677
  36.1115956  72.3502207  24.3384767  37.0308018  72.1606588  24.1504431
  35.8307910  72.9134130  23.6172295  63.0934954  60.5342293  33.4588790
  62.4874830  60.5277300  34.1997838  63.4220028  59.6364832  33.4102678
  55.9797668  51.9322443  18.0281425  55.8614874  51.1932755  17.4313450
  56.7006683  52.4341869  17.6478982  22.0335937  32.3783231  58.2744837
  22.4026084  31.7100596  57.6970053  22.5848389  33.1479788  58.1330919
  54.6927977  54.6830416  47.0403147  55.4085207  55.3170872  46.9960785
  54.0807629  55.0565672  47.6744461   6.7375493  11.5707374  24.4312882
   6.1129731  11.2386084  25.0761342   6.5537196  12.5087631  24.3808389
  15.7699645  72.5434685  60.9285021  15.9582877  73.4748125  60.8128834
  15.0102317  72.3815012  60.3692150   6.0008138   5.7401800  24.5720601
   6.6875160   5.6097084  25.2260089   6.1253512   6.6399682  24.2702270
  69.0980387   5.9065610  51.7857599  69.2187166   6.7266583  52.2644138
  69.8515368   5.8595836  51.1973095  13.0992043  53.0753613  36.2505174
  13.9743757  53.3315659  36.5414953  12.6459098  52.8173780  37.0531368
  76.0210323  30.7755852  19.0969813  76.6873264  31.4110518  19.3586397
  75.7446957  31.0628819  18.2267344   3.7548634  40.6455898   6.8964821
   4.6032149  40.5569696   6.4621121   3.3552849  39.7790909   6.8206698
   3.2841995  64.3505287  12.0024681   3.4539914  63.6485815  11.3742399
   2.4546400  64.7327328  11.7161405  31.3285160  31.9717431  50.5405664
  32.2348166  31.9603014  50.8483267  31.3962483  31.8619895  49.5920944
  19.2127621  23.2699990  14.4055033  18.9226139  23.2569265  15.3175747
  19.4993770  24.1713309  14.2582381  78.7719727  42.8569698  29.3384004
  78.7519026  42.5479269  30.2441168  78.0052471  42.4541521  28.9308381
  46.2825346  51.4281893  36.0487723  46.9690466  50.9791327  35.5555415
  45.8128691  51.9421864  35.3919148  66.3524151  58.9123964  34.4217634
  66.5064907  58.2938290  33.7077141  65.8719397  59.6332693  34.0146828
  23.0190420  67.3433733  23.7605500  23.0222273  66.6048717  23.1515813
  23.9373159  67.4547958  24.0067005  65.0637245  62.2185135  34.0267277
  64.3078756  61.6710758  33.8140368  65.0537062  62.9087591  33.3636332
  59.5903158  59.0874195  53.1485128  59.8579264  59.2774773  52.2493505
  60.3909540  58.7863541  53.5781336  28.4056067  13.0039394  20.0049543
  28.1779623  13.5609055  20.7493997  29.2233586  12.5795412  20.2645731
   6.6540480  69.0698338  36.6388893   6.3132954  69.3123102  35.7778859
   7.1835208  69.8207998  36.9071031  81.0808563  60.1896763  50.6789398
  81.5376854  60.9780502  50.9722137  80.2936268  60.5169392  50.2437496
  61.7339182  49.3512917  36.6276336  62.6508760  49.4997263  36.8586922
  61.6581583  48.4005213  36.5468502  75.6420946  46.1401176  19.1223776
  76.3863182  45.6916142  19.5238829  75.9236574  46.3145399  18.2243085
  26.4561057  27.5226164  18.8363338  27.0126247  26.9084096  18.3575141
  25.7617664  26.9778419  19.2069387  46.5446138  41.6037560  55.1914692
  46.6169071  42.2729254  54.5108700  47.4475050  41.4416885  55.4648733
  79.3096256  76.0850906  17.0331037  78.5261202  76.5761566  17.2805035
  79.1514111  75.2001572  17.3618770  30.2846003  70.1767349   0.3528330
  29.7369957  69.8562813  -0.3638759  30.8067513  69.4178724   0.6130617
  10.6536365   2.9180247  25.6301475  10.1553166   3.6143956  25.2023888
  10.9643424   3.3118951  26.4453530  40.6092024  23.4597373  53.4352398
  40.5003500  22.7644348  52.7864456  41.4779806  23.8198233  53.2569456
  29.4609332  31.0320544  21.9896030  28.8028932  30.3413987  22.0683980
  29.5489669  31.1725736  21.0468769  62.9848623  74.3714666  67.5087833
  62.9162169  75.3188801  67.6268291  63.2492018  74.2624521  66.5952921
  77.9958820  76.6478491  25.5654407  77.3780298  75.9167624  25.5634499
  77.4669170  77.4091244  25.3269482  76.4960909  59.2210293  31.4454341
  76.2439394  58.8779497  30.5881429  76.5125275  58.4523726  32.0156336
   5.2509224  25.6073905  66.9421342   5.2636634  26.4407922  66.4714818
   4.6315967  25.7463933  67.6586159  69.5186567   7.9161727   2.3311009
  70.0080061   8.4737921   2.9359388  68.7846327   8.4597415   2.0447919
  43.3783388   2.2038689   8.7319428  43.1784439   2.0565636   9.6563751
  44.1018152   2.8305650   8.7402445  79.0953588  36.9626403  49.0704393
  79.0064240  36.2677312  48.4181929  78.4571648  36.7385292  49.7477245
  66.1202955  63.7953472  11.2615979  66.9997644  64.1015863  11.0402691
  66.2586355  63.1514215  11.9561851  62.9397345   3.3837464  42.0501232
  62.6390553   3.0462813  42.8938866  63.5318232   4.1010410  42.2762871
  55.9722996  49.8781204  26.8766570  55.3374720  50.3486395  27.4168801
  55.6142473  49.9255514  25.9902143  30.3546071  73.0508518  60.2018452
  31.2866116  73.0492496  60.4200220  29.9215698  72.7445650  60.9986496
  32.1781898   3.6193168  30.0012255  32.9759192   4.0264645  30.3390002
  31.5072584   4.2960492  30.0913143  29.4217443   4.6280670  14.0974045
  29.3966293   4.8098159  15.0368559  28.5022593   4.6123037  13.8318348
  15.7882535  63.7814379  13.7588716  15.6532681  63.4315205  12.8782070
  14.9255812  63.7327576  14.1707695  76.4170742   1.9752559  27.5498796
  75.6934977   1.6199860  28.0660701  77.1909237   1.8385434  28.0964065
  72.4875641  49.0283680  53.6587238  72.9140377  48.9568615  54.5126820
  72.0186377  48.2003593  53.5551023   3.6099741  43.7716436  58.6422729
   3.8230324  42.8516769  58.7987852   2.7736998  43.9031792  59.0890074
  66.8687487  35.9057117  10.9213400  67.7481365  36.2423468  11.0933399
  66.5962887  35.5127478  11.7505431  31.6785812  20.2387929  17.3374927
  31.0069942  19.7603893  17.8236341  32.4983811  19.8020732  17.5686562
  52.4979544  27.7218866  17.2463679  53.0046511  27.5051236  16.4637423
  52.4822664  28.6787939  17.2641158  54.6547365  45.2939558  17.5929642
  54.6271372  44.7615290  16.7979848  55.5185080  45.1208067  17.9673266
   4.9321884  61.3206053  52.9332829   5.2326900  60.4457569  53.1793880
   5.6488132  61.9009924  53.1898594   7.7732509  65.7958508  42.8304386
   7.9392505  66.3006210  43.6266088   7.9064375  66.4212990  42.1181822
  72.3163795   8.6735702  25.1984644  71.7338562   7.9166883  25.2619457
  72.6392508   8.8027769  26.0902548  44.6624184   2.9576790   4.9270648
  44.4195604   3.6408809   5.5519557  44.2041779   2.1762939   5.2363932
  48.1077385  59.6785116  13.6279261  48.3711100  60.5985880  13.6098516
  48.4398842  59.3506813  14.4636512  15.5679011  22.2905135  21.6022468
  15.0357008  21.7054796  21.0630512  14.9401665  22.9089785  21.9759870
  52.5696611   8.0898052  13.2851911  52.6372385   9.0098488  13.0298793
  53.3571339   7.6826072  12.9242027  20.4392242  77.3636580   2.3036537
  19.5307410  77.6407146   2.1847767  20.7105207  77.0548582   1.4392045
  48.5944271  55.0565529   2.0044661  47.9841518  55.5408764   2.5605488
  48.5169601  55.4717970   1.1455110  48.7771988  71.6959429  10.8024859
  48.3981752  70.9402847  11.2514329  49.6188307  71.3812017  10.4726040
   6.2200099  36.6039968  20.6482220   5.2760154  36.7378497  20.7330132
   6.3661647  35.7157826  20.9737182  55.8087254  14.8564661  35.4937768
  55.8642244  15.7554948  35.1698995  56.1133194  14.3192005  34.7624779
   1.7227082  62.3864365  36.6554880   1.9050965  61.6456413  37.2335744
   2.2277978  62.2022629  35.8635306  74.2278385  18.2395351   9.0685546
  74.7643280  18.3859587   8.2894677  73.5240412  17.6635766   8.7699360
   6.7310309  67.3856974  50.1755524   7.5926381  67.0095921  49.9955225
   6.4857471  67.8235102  49.3604469  25.1474452  21.2807369  52.4595928
  25.3095651  20.4609871  51.9927359  25.7807255  21.2768769  53.1773472
  78.6191368  62.8162718  55.6525612  78.8325262  62.7183151  56.5805197
  79.4078207  62.5271702  55.1936197  64.9980164  33.0747247  10.4962385
  65.4052925  32.8165793  11.3231111  65.5005169  32.6107049   9.8266047
  49.9085569  28.3127618  13.6621022  50.5404758  28.9572263  13.3433890
  50.4373217  27.6769781  14.1442037  55.1672363  18.0076969  11.6261530
  55.7393837  17.7269137  12.3403251  55.5547667  18.8263512  11.3165390
  28.0201459  14.9337041  40.8642006  28.4210634  15.4029047  41.5958738
  28.4007120  15.3367722  40.0838566  58.2462454  58.0170870  30.9009099
  58.2531071  58.9723110  30.9620237  57.8582144  57.7270508  31.7264652
  28.8300014   4.8455781   9.1686040  28.8276792   4.3098933   9.9618679
  28.2697892   4.3689221   8.5560733  75.1232910  62.7584887  12.8304863
  76.0220194  63.0879068  12.8316092  74.7294188  63.1344271  13.6177385
  10.3503799  55.0356579  66.5373325  10.5341852  55.4110765  67.3984385
  11.1854100  54.6618938  66.2558031  37.1209741  16.7583585  56.7855072
  37.9598284  16.5324843  56.3835907  37.1864820  17.6961780  56.9655991
  19.6835256  47.0534658  17.4006176  20.5975771  47.2777510  17.5750852
  19.5439243  47.3094273  16.4889014  57.0855379  39.2460704  40.2315855
  56.2574768  39.6923494  40.0544310  57.6568317  39.9306107  40.5798149
   3.8678780  34.9672842  58.2038069   2.9714552  35.2490425  58.3862066
   3.7793359  34.3316698  57.4936056  60.1383400  67.7556276  59.0243292
  59.8679018  68.5531282  58.5692549  61.0674286  67.6629305  58.8135338
  40.3255415  11.0699511  37.1645784  39.5774579  10.8032238  37.6988626
  40.6247139  10.2605653  36.7503071  51.0468149   9.3604863  31.1375642
  50.8871317  10.2954662  31.0089302  51.1000061   9.2550498  32.0874500
  29.5008779  18.8816190  18.3016217  28.8329220  19.2282259  18.8931715
  29.1191411  18.0748558  17.9557276  45.5243492  24.9794054  18.0399847
  46.0882473  24.5158100  17.4208498  46.1165571  25.2654433  18.7354720
  69.1730642   9.0899128  23.8768768  69.5716238   9.5718825  24.6015072
  69.8563385   8.4856886  23.5865664  15.1939762  40.5157423  54.1151285
  14.3429005  40.8060694  54.4431734  15.7734060  40.5656004  54.8753977
  72.0040369  67.2003984   7.4104697  72.2399950  66.8700218   6.5436327
  72.0947981  66.4427805   7.9884046  63.1054926  45.7227135  59.4926500
  63.5532570  46.3141346  60.0975943  63.0651903  46.2083197  58.6687565
  43.9712524  -0.1362106  43.2732725  44.8373842   0.0616755  43.6294889
  43.4510374   0.6451737  43.4604836  54.9351263  66.6323996  61.7963839
  55.5736256  67.0391035  62.3821688  55.1331949  65.6968737  61.8386364
  32.9755521  37.0148325  61.7694426  32.8676748  36.2975574  62.3940325
  32.2488546  37.6084447  61.9585752  68.3377218  31.0513091  51.3555670
  67.9512167  31.9227934  51.2697649  68.7672043  30.8958912  50.5143642
   7.4663627  47.0944452  60.5242777   7.4912041  46.1439085  60.6342411
   8.1426537  47.2778749  59.8721933  74.9031544  67.2355700  27.3561239
  75.0092268  66.9222832  28.2543612  74.0276909  67.6222324  27.3391318
  44.9362612  21.2909627  19.7758853  44.2422867  20.6493807  19.9275303
  45.0355911  21.3159156  18.8241804  73.8572216   8.9881635  41.4010143
  73.4047794   9.1773462  42.2230434  74.5269585   9.6687597  41.3341045
  79.2183971  54.8236990  65.4632521  79.6659899  53.9785290  65.4235411
  79.4854641  55.2740431  64.6619463  40.1376390  21.6047382   0.9476568
  39.7278118  20.7516623   1.0909519  39.4461131  22.1404123   0.5589759
  24.2782712   4.8620886  13.9851260  23.7532139   4.7784498  14.7810841
  23.7398410   5.3923517  13.3976352  47.9626322  20.3320074  27.2641373
  47.8418255  19.4428909  27.5974703  48.7599468  20.6424141  27.6932788
  28.8133144  20.2623844  63.2262897  28.2235813  19.5635986  63.5093975
  28.2310128  20.9604335  62.9264879  35.6637502  76.6543865  12.5601280
  35.7376719  77.5476837  12.2242916  34.8597074  76.3161135  12.1660221
  18.2908154  38.6655712  64.4738102  17.8659666  39.5174360  64.3734884
  19.0576899  38.8430476  65.0184536  51.8221521  47.7074909  52.6462698
  51.0132122  47.8414822  53.1401253  51.8323994  48.4188080  52.0058346
  28.4415054   0.6021440  53.1246901  28.4019685   0.9868951  52.2491121
  28.5552216   1.3506952  53.7103271  49.1420555   2.9107007  19.5885181
  49.8853016   3.0443355  19.0003324  48.6249781   3.7120816  19.5069730
  35.7204890  26.9010043   9.0756941  36.3774419  26.7305255   9.7506618
  35.7845449  27.8418064   8.9113098  16.5934098  74.4680071   6.1479074
  17.0437515  75.1386261   5.6343937  17.2470546  73.7791157   6.2679499
  45.2239418  60.4307556  26.2107897  44.5129490  60.7232857  26.7810082
  44.8594713  60.4834175  25.3272653  46.2452412  30.4968381   2.6762599
  45.6202507  31.2089896   2.8121340  46.5797234  30.6374550   1.7904934
  64.8347139  53.5185766  44.9056292  64.9710035  54.4514179  44.7399044
  65.6187868  53.2425737  45.3802633  48.2324362  34.5251942   6.3391048
  47.7690840  33.7706995   6.7028010  47.7971840  35.2838302   6.7280215
  22.8431106  60.2049494  33.6875176  22.9848576  60.6287575  34.5339942
  22.0679116  60.6377602  33.3297896  13.7586820  31.6769290  57.4018192
  14.4548166  32.3217964  57.5274134  13.9688361  30.9746671  58.0173635
  78.0413151   3.0136797  62.4333334  78.9873362   3.1594723  62.4379063
  77.9430819   2.0737958  62.5856495  34.5707202  54.4680023  65.5275154
  34.8052073  53.8308334  66.2022495  35.4064679  54.7183800  65.1337290
  12.2191834  18.6472607  14.6687102  12.8938484  18.0554116  15.0015390
  12.5009608  18.8548112  13.7777805  70.1208019  10.7228756  25.9628701
  70.1911879  10.1239836  26.7062449  70.9187031  11.2500620  26.0036397
  40.6232500  68.1198406  53.5270786  41.5221977  67.8790617  53.3031368
  40.6811333  69.0360594  53.7980509  78.9129639  26.8352509  49.2264986
  78.3007765  27.0622492  48.5265493  79.7482300  27.2080493  48.9444017
  37.3067713  11.8827534   4.4094783  37.5806427  12.1279597   3.5256797
  37.8787374  11.1517179   4.6433011  16.1289477  59.1308212  52.5822067
  15.4369867  59.7661877  52.7658606  15.7800257  58.2981014  52.9001093
  10.1465070  64.0289116   5.6430197  10.2677035  64.0988970   4.6961063
  10.6711137  64.7430182   6.0050577  23.8621092  27.6995611  67.1416998
  23.4924698  28.2786250  67.8082466  23.1358695  27.1286345  66.8909979
  54.2279100  24.7191477  63.6395836  54.1183233  23.8202953  63.9498854
  53.8219881  25.2580905  64.3185520   1.0261407  58.5178375  61.7547846
   0.9805355  59.3090296  61.2179756   1.8717240  58.5783815  62.1992588
  21.3340092  40.2646685  30.2377510  21.4131641  39.4710040  30.7669568
  20.4402733  40.5692244  30.3949618  25.2264619  56.4163017   2.3304118
  25.9485364  56.8587971   2.7765477  25.6500411  55.7401562   1.8015987
  65.9330797  27.8157997  16.6303277  65.3488970  28.4949088  16.2930298
  66.7674017  28.2643199  16.7680585  56.6168690  60.9351158  65.9580421
  55.9964323  61.6639709  65.9503794  56.1482763  60.2171993  65.5323124
  49.7494459  68.9255619   1.5956782  48.9790249  69.3941212   1.2745237
  49.4902134  68.6011600   2.4581149  44.2994928  28.6423516  24.2691803
  44.8249292  28.6207652  25.0689793  43.4676600  29.0312123  24.5395088
  45.9220934  18.0754066  13.5484862  45.2219725  18.0298722  12.8973424
  46.4545679  17.2975039  13.3824444  53.3658791  12.0441329  51.1107588
  53.0580378  11.3412070  50.5386019  54.2624807  11.7950737  51.3350344
   7.6985300  49.3441677  57.4249029   7.1459472  49.9335718  56.9115925
   8.3427858  49.0138817  56.7987442  15.0291884  75.5337620  20.4330111
  15.0214076  75.3995323  21.3807201  15.9549713  75.4939699  20.1930642
  72.8816938  52.1017313  52.0231056  72.2791624  52.1672916  52.7639818
  73.1127405  53.0084515  51.8213320  74.1886044  73.8484526  39.9622250
  75.0173140  73.6219168  40.3843164  74.3549728  73.7272930  39.0274143
  34.7189760  65.7539415  16.6990674  34.2745209  66.5940666  16.5855765
  35.4435349  65.7799435  16.0741115  52.5523376  67.1992922  27.6819205
  53.0850506  67.1794748  26.8869019  51.9116449  66.4989328  27.5584483
  43.0116844  29.2742801   2.0987147  43.5115862  29.9466372   2.5616038
  43.4228277  28.4495020   2.3574273  30.9063458  45.6942844   4.5929688
  31.3246727  45.9925747   5.4005939  31.5912032  45.2079248   4.1339952
  59.9435472   3.8304812  43.2329607  60.5315399   3.2569733  43.7244749
  59.1278076   3.3345002  43.1636620  50.5880833   6.4159429  16.9766688
  50.5261087   7.2642332  17.4157524  50.6083727   6.6299617  16.0439217
  27.8522253   6.7528093  28.3807921  27.0188260   7.1381944  28.1103230
  28.0520654   7.1760637  29.2157507   4.7951484  69.0254068  66.5706301
   5.6126040  68.5506153  66.4203835   4.7096848  69.6015072  65.8109999
  37.1912479   1.9128977  62.1269941  36.4849806   1.2705943  62.1967220
  37.4408197   1.8951033  61.2030745  29.8849964  31.8898988  13.4336603
  30.2712154  32.6790524  13.8135290  30.3615212  31.7609191  12.6135862
  35.0384712  15.7029545  66.0016060  34.4174027  15.3727555  65.3523970
  35.4279780  16.4742780  65.5898142  61.1586475  40.2150822  16.2003636
  60.8339930  40.4560852  17.0679736  60.6035662  39.4829822  15.9317708
  61.0939455  62.5164938  56.9896412  61.2779570  62.5248623  57.9289532
  60.1695299  62.7561808  56.9245291  32.7087092  70.6046152  59.0317774
  31.8219781  70.5364704  58.6778021  33.2782793  70.3810453  58.2956791
  52.0568132  18.5056007   2.2901995  51.3524151  19.0643239   1.9617411
  51.6057444  17.7669072   2.6989809  66.0625219  35.0115252  46.4690447
  66.2345791  35.0065303  45.5274487  66.7894983  35.5096269  46.8427229
  76.4260912  48.6947155  62.4225616  75.7386780  49.3321180  62.6160049
  76.2308979  47.9513645  62.9931402  43.5192108  31.8302846  11.0529268
  43.0398130  31.5764332  10.2642763  43.9405775  31.0228348  11.3473904
  13.8174343  64.6218872  66.3476324  14.5175934  65.2731752  66.3048172
  13.0533779  65.0671864  65.9813547  63.9741850  13.0881202  12.3602188
  64.2595863  12.2676134  11.9582891  64.7271824  13.6725044  12.2723317
  65.6371498  27.3885012   4.3877074  66.2375927  27.4099565   3.6425647
  65.6697178  26.4827394   4.6955478   5.6035399  49.1703367  15.6446397
   5.4905808  48.6588907  16.4458251   5.8518851  48.5257435  14.9820220
  79.0806246  67.7110243  53.1808662  79.6972036  68.0393457  53.8352919
  78.3967781  68.3795118  53.1394672  67.4948883  61.2757540  22.5287628
  68.1540442  60.7987785  22.0245409  67.9947281  61.9274282  23.0204058
  11.2830746  70.9963274  61.0029268  10.3962493  70.8749056  60.6637669
  11.4048326  70.2740240  61.6191101  78.1510496   5.4292405  50.8857155
  77.9305410   6.2810344  51.2626171  78.5407305   4.9402729  51.6104794
   7.2517657  28.7128615  58.7374163   7.6443601  27.8662539  58.9503908
   7.9952121  29.2711377  58.5097122  50.2199554  32.5293159  12.5061321
  50.5106020  32.0552659  11.7270076  49.2837429  32.6703882  12.3653066
  32.1322513  13.2593060  58.8456345  31.6061711  12.4749136  59.0011978
  32.6217055  13.3845568  59.6586370  45.9005833  45.8774805   2.5252399
  46.1827946  46.4405107   3.2460630  45.9394360  46.4405632   1.7521548
  38.7864327  40.8772230   1.1277366  38.3761835  40.0531483   1.3900885
  39.0283465  40.7432556   0.2113510  69.9468231  35.5853057   0.5983222
  69.7714376  36.1640215   1.3403192  69.0796471  35.3363132   0.2785693
  71.6376257  30.7099605  22.1233225  72.3289347  31.1712813  21.6484451
  71.7953110  29.7844863  21.9365954   2.4029395  28.0408669  30.0558543
   2.0620291  27.2628045  29.6146846   1.9558889  28.0515242  30.9021783
  63.7265635  25.1020527  14.0850818  63.6025047  25.4644012  14.9623179
  63.1090021  25.5857921  13.5365880  25.4668117  20.3973150  62.7121305
  25.4668140  19.6665263  63.3303356  25.4474545  21.1785841  63.2648277
  42.8478622  68.5407495  59.4345808  42.1673155  68.9971781  58.9398432
  42.4541521  68.3811903  60.2923489  78.0339766  52.4820614  56.6311169
  78.0552340  51.6700363  57.1374750  77.1210480  52.7666998  56.6731453
  22.5349045  57.6533318  36.7453885  23.2121444  57.1357632  36.3098431
  21.7951488  57.6393557  36.1381006  58.7881565  12.1891081   9.4805038
  58.1690073  11.6396904   8.9998561  59.2277575  11.5863431  10.0802195
  10.3723037  42.0255470  65.3234339  10.7583618  42.8956127  65.4242897
  10.3237796  41.8933296  64.3766546  51.6852331  42.5761127   7.1080607
  51.2597799  42.9735184   7.8678578  52.5777578  42.3933220   7.4017024
  21.7110491  50.3893471  34.3319082  21.4370847  51.1603975  34.8285532
  21.2696075  50.4791546  33.4873414  67.9315233  49.5930529  34.9457979
  68.2047415  50.0374079  34.1432214  67.7378464  48.6972761  34.6695638
  47.5211287  66.8763256   8.9327890  47.8265667  66.4714766   9.7446001
  46.9287443  66.2289476   8.5504133   4.6385196  34.4556355   5.2207476
   5.0468546  33.6550021   4.8913836   4.2801645  34.2085218   6.0732418
   8.3099383   2.4664122   8.9261693   7.9098070   1.6000226   8.8520354
   9.0481216   2.3391175   9.5220834  42.0751810   2.1962711  23.9501357
  41.5601349   1.3896270  23.9332461  42.0495987   2.4776705  24.8646808
  56.1924982  13.2347238  33.2899618  55.4582548  13.7767172  33.0012417
  56.7290545  13.1207323  32.5055218  27.8212483   0.5814842  27.3162675
  28.1966204   0.1544098  26.5462446  27.7758346  -0.1107498  27.9757953
  41.4908075  13.7451470   1.2721653  42.3668909  13.4971225   1.5674558
  41.1829710  14.3670785   1.9314608  19.1093230  59.6942854  48.6223459
  18.9616978  59.4647741  49.5398188  20.0452995  59.5471191  48.4862471
  71.9356441  14.2872584   4.0574872  72.0694590  13.9981222   3.1548658
  71.5773249  13.5201859   4.5040759  65.1717710  48.4233475   8.7636882
  65.7876348  47.6976395   8.6622596  64.6197844  48.3799505   7.9828805
   2.8684074  24.3740320  10.3679729   3.6129004  24.0845275  10.8953726
   3.0242240  25.3077078  10.2258372  81.2670803  45.1623917  58.6618662
  80.7502842  44.6644449  58.0284595  81.7264175  44.4960070  59.1729164
  19.3554783  44.1457272  59.2661619  18.6285496  44.6062899  59.6853161
  19.2391002  43.2308865  59.5225906  42.2401619  16.4184213  32.0122170
  42.9480934  15.8704948  31.6733384  42.0226765  16.0313725  32.8602290
  39.6285939  18.5543704  47.4668837  39.4979215  17.9687858  46.7210627
  40.5211592  18.8831341  47.3597622  19.9240649  47.7604342  14.8205113
  20.2302432  46.9241524  14.4696307  20.5341744  48.4069157  14.4654608
   0.7297441  55.7830143  61.7735577   0.9278639  56.7194843  61.7740488
  -0.1907476  55.7330751  61.5158129  71.8683434  48.4391403   9.4455045
  71.3673973  49.1046429   9.9170882  72.1535826  48.8774633   8.6437929
  14.3286681  13.9247978  62.2426319  14.9658751  14.5690346  61.9341564
  14.7255492  13.5537195  63.0306768  49.2533731  44.0242767   3.9457899
  49.4632149  43.1025982   4.0964779  49.9976969  44.3609190   3.4469050
  59.2060471  28.6907125  14.1793942  58.4932470  28.6867547  14.8182487
  60.0015831  28.7490010  14.7085071  11.8301654  66.6329336  65.0960970
  11.7262459  67.3624802  65.7069921  10.9434521  66.4548588  64.7826290
  17.1686637   8.5185331  63.3173037  16.5037024   9.1812134  63.1304550
  17.7661443   8.9452702  63.9314270  81.5610600  30.4632592   7.6614988
  81.9363976  29.7921038   7.0914966  81.2520409  29.9808049   8.4282935
  34.9113321  75.1286888  57.9675770  35.7560706  74.7128868  57.7950716
  34.8464966  75.8211756  57.3099375  70.5478382  72.3123646  62.7180290
  69.7264624  72.7784681  62.8739738  70.2856731  71.5087986  62.2688246
  23.2794333  71.6342974  59.8934698  22.4663925  71.7760658  60.3783464
  23.1175804  70.8423328  59.3808031   6.5984315  64.0883064  51.6050625
   7.3089898  64.7200727  51.7155647   5.8104485  64.5665312  51.8631649
  38.2860255  31.9145298  12.6417458  38.7592268  32.2008991  13.4229660
  37.9871726  32.7262163  12.2317636  28.1588483  25.5032086  17.6954508
  28.5677838  25.0367475  18.4244335  28.8071799  25.4642463  16.9923306
  22.8488588  19.1403377  27.1008873  22.0369577  18.9679277  26.6241026
  23.5351205  18.7660074  26.5484834  60.5140591  34.9926639  11.0790825
  61.3315582  35.4063296  10.8019423  60.0015688  34.9122977  10.2746403
   5.3015578  62.1172857   3.5872695   6.0334319  62.5612688   3.1589365
   4.5339954  62.3723364   3.0753824  11.9689155  20.5869174   6.1412942
  12.6580513  20.3017497   5.5412912  12.4010873  21.2130308   6.7221916
  30.1737761  21.5117073   5.9881353  31.0486960  21.1607027   6.1541069
  30.2113843  22.4116993   6.3119078  68.6700583  28.7889290  26.4895058
  69.1796160  29.5274210  26.1560178  67.7605152  29.0826535  26.4376640
  66.0785294  24.6174049   5.1261157  66.8134594  24.3575025   4.5706314
  65.6983805  23.7905335   5.4227662  57.8524685  14.6740663  16.9979203
  58.2126808  15.1528013  17.7444422  58.5570621  14.6753430  16.3500178
  64.0020895  52.8288317   3.1652772  63.9360809  52.3029041   3.9623180
  63.1042385  52.8807783   2.8375548  67.2245407  22.4499035  10.9649467
  66.6030073  22.3764825  10.2406991  67.3814249  21.5461349  11.2384820
  56.9279385  45.5476189  43.4359694  56.1073208  45.8505630  43.0473232
  57.5584221  46.2387514  43.2333422   2.2189896  29.4779038  32.9096603
   1.9978441  30.0983882  33.6041570   3.1100398  29.7143316  32.6520491
  27.2496104  40.2240610  37.6027870  28.1766796  40.4219007  37.4699903
  27.0639825  39.5188689  36.9827271  58.9684010  16.9692600  17.9483438
  59.5601463  16.6634798  17.2609043  59.5238352  17.0509315  18.7236238
   2.6775085  77.5487427  12.4580860   1.9754874  77.8814459  13.0172884
   2.2241007  77.0753382  11.7605603  67.1941185  16.0756755   4.3080229
  68.0702305  15.7681549   4.5405847  66.6513634  15.2874017   4.3245569
  59.2973614  36.5934515  13.0819023  58.9842796  35.9131336  13.6780393
  59.7749233  36.1161399  12.4034214  63.9077902   3.3380225  36.0890770
  64.4960165   3.4433433  36.8368244  64.2685795   2.5964779  35.6030989
  10.2543437  60.7836533  60.4954672  10.9739411  60.2255726  60.7903576
  10.5029440  61.0467815  59.6093559  41.0271454   9.4959468  59.5622683
  40.7498312   8.5802400  59.5907688  40.7294893   9.8623693  60.3949547
   9.2154455  43.4661388  13.4023476   9.2987818  42.5515079  13.6720490
  10.1119685  43.7424231  13.2122278  42.1448135   0.9830078  61.3846064
  42.9625988   0.8444001  61.8623638  41.7233324   0.1236322  61.3768673
   2.2202654  51.0890865  45.0354862   2.3791261  50.4042864  45.6851339
   2.6888847  51.8525457  45.3727627   9.5200807  62.9369307  62.8167582
   9.5412439  62.3348618  62.0729160   9.4095439  62.3704290  63.5803556
  76.5168476  41.1800671   6.1412501  76.8431187  40.5966091   6.8263453
  75.8093309  41.6697598   6.5606004   1.1398216  69.1672277  51.7749214
   0.9929497  68.2650805  51.4906836   2.0842028  69.2214823  51.9213200
  79.9771166  31.4342403   0.0978071  80.8663559  31.1377144   0.2915962
  79.4463110  31.0826993   0.8125746  80.2912140  70.7111120   7.2654915
  80.6504822  69.8331356   7.3932254  80.5836678  71.2034941   8.0324763
  59.1518116  15.8638346  28.0210590  58.3390093  16.3585937  28.1249547
  59.1503382  15.5906820  27.1036601  62.2052288  50.5942249  40.3006887
  61.5356684  50.3990078  39.6450877  61.7184877  50.9635448  41.0375166
  52.7546549  20.0875163  11.9018483  52.6589060  19.3926477  12.5531697
  52.7083254  20.8984804  12.4082303   7.2718465  35.9828401  37.5292921
   7.3714322  36.1399317  38.4682465   7.5325525  36.8076515  37.1194792
   3.3350104  21.5229392  30.4242396   2.5064796  21.8125200  30.8062243
   3.6210340  22.2604918  29.8853159  42.2870827  15.6643736   5.5136752
  41.4343452  15.2309597   5.5486548  42.4897242  15.8683264   6.4266765
  61.2282372  10.8702290   0.1441273  60.6598043  11.1849475   0.8470287
  60.7791471  10.0978661  -0.1993929  64.4337749  54.1126680  22.3975658
  63.7250853  53.7750721  21.8498278  65.1137209  54.3727541  21.7760706
  21.2125802  30.7222509  53.6414814  21.1871743  30.8070230  54.5945787
  21.1713052  31.6228127  53.3197403  22.0945191  14.9320590  39.4266820
  21.2655878  14.4579232  39.3611050  22.1648955  15.1645017  40.3525591
  80.8775425   1.4726210  15.0338781  81.5052128   0.7514028  14.9879968
  80.2277279   1.1841973  15.6748009  66.8343782  43.9772415   2.2429018
  65.9569407  44.3338490   2.3813193  66.7217875  43.3261204   1.5503702
  40.6810236  54.3714094  48.9955473  40.5235147  53.4570980  49.2310524
  41.1597681  54.3264961  48.1678867  67.7384472  77.6253700  67.0821238
  67.7457857  76.6699886  67.0236158  67.4645567  77.9164982  66.2123775
  11.2349999  63.8694859  55.7983255  11.6982269  63.0369902  55.8910656
  10.6419551  63.8985252  56.5491152  79.5719528  58.5006332  62.3910427
  78.6898947  58.7756205  62.6412153  80.1357746  58.8455725  63.0834007
   5.1479357  69.4314861  57.0451212   5.3722137  70.0073862  56.3141823
   4.7967100  70.0191927  57.7140570  76.6469765  17.4128091   3.9980084
  77.5814104  17.6086819   4.0665448  76.2347221  18.2628798   3.8441968
   7.6414591  53.4184790  50.5231667   6.7009801  53.5439634  50.3967333
   8.0356586  54.2339230  50.2135086  80.9001827  70.1493788  63.3372545
  80.6243515  69.2826462  63.0390549  81.8520927  70.0845432  63.4140015
  18.1899810   5.6058043  65.4274130  19.0873027   5.5036926  65.1102114
  17.6435363   5.4245949  64.6626949   5.7164949  61.5676355   6.4132369
   5.5711961  61.5289116   5.4679215   5.6612504  62.4992323   6.6260886
  24.6036267  48.1520653  31.4800954  23.8499594  47.9491425  32.0342088
  25.3552294  47.8076887  31.9625139  10.9632647  51.4084005  58.0845928
  11.6031444  51.6680574  58.7474346  10.1339042  51.7691755  58.3980131
  64.3431568  55.2292109  30.4581475  64.2437363  55.0334167  31.3898182
  63.4513378  55.2032042  30.1114368  47.6843548  29.6239114   6.8661934
  47.9506254  28.7170625   7.0177186  48.4406424  30.0276470   6.4404452
  52.8009748  16.2183332  24.5629406  52.8304768  16.2131000  25.5196714
  53.4418631  16.8817163  24.3071771  -0.0403557  69.5714426   4.1339454
   0.8092250  69.9338675   4.3851280  -0.0380852  68.6843443   4.4935086
   7.5165653  47.8324509  24.6726823   7.2209513  48.6611605  24.2957449
   8.3677572  47.6738167  24.2645884  73.6970043  58.4826612  22.6444793
  73.0731010  57.8099537  22.9173112  74.5555544  58.1032944  22.8320956
  81.4212036  72.2858381  57.0728111  80.9771061  71.8459892  56.3478661
  80.8133793  72.9737473  57.3440313  43.7840414  70.9473133  30.0038862
  43.8863564  71.0867548  30.9453297  44.6783590  70.9505844  29.6626878
  62.8721476  48.1872749  16.8911910  62.9816198  47.7576733  17.7395391
  63.7653160  48.3296776  16.5778077  44.3448782   9.5373702  61.8072510
  44.8493099  10.2032244  62.2746038  44.2788124   9.8710889  60.9125423
  66.6514397  19.5060933   1.3145255  66.7104149  18.9039409   2.0562568
  67.5266409  19.4952559   0.9270500  40.6458235   9.7082335  62.2438860
  41.0903835   8.9519829  62.6268816  41.2417603  10.4408228  62.4001122
  32.5071144  69.9690437  21.4942098  32.0671058  70.2665949  20.6979132
  32.8765941  70.7654715  21.8755531   3.5743067  62.3059845  33.8697577
   3.7614605  61.4464426  33.4924078   3.2685247  62.8308821  33.1300187
  64.2712402  42.8349257  24.5095921  63.9117718  41.9499779  24.4472528
  64.2603827  43.0324268  25.4461312  26.1664653  57.4801540  50.6750441
  26.0773706  58.4325027  50.7114124  26.5441132  57.2424126  51.5218592
  36.4658046   2.1422124   8.4192783  36.3961101   2.6014715   7.5823456
  37.1780252   1.5158668   8.2901973  81.0303974  35.3514743   4.6012467
  80.4883480  35.8311677   3.9749023  80.4914570  34.6044803   4.8615885
  63.5084867  42.0398140   6.8431419  63.9406919  42.8044224   7.2236711
  64.0450335  41.8149853   6.0830086  59.4047976  33.8914824  17.2288966
  59.7771406  33.3723092  16.5161192  58.8276672  33.2839584  17.6915669
  43.3673716   1.2024558  55.7692480  42.8616142   1.8041229  55.2229500
  43.0460310   1.3577372  56.6574240  10.7360458  60.9099007  66.9295025
  11.6292965  61.2348127  67.0424986  10.8104575  59.9618340  67.0384121
  66.1201811  73.5498047  66.8499994  65.2686882  73.7944603  67.2123957
  65.9403706  72.7743816  66.3183832  64.6463156  37.2226000   4.0169939
  64.0390778  37.9409742   4.1942737  64.2452717  36.7433929   3.2919058
  68.9259148  42.5955772  39.5361614  68.5998535  41.7181158  39.7361016
  69.3849802  42.4962234  38.7021232  29.4336605  75.8324289  64.4429111
  29.9588990  76.5588427  64.1072369  29.0843987  75.4073858  63.6595964
  36.9315386  75.6473064  29.4733286  36.6796541  76.5704107  29.4990516
  37.5465012  75.5871201  28.7422800  63.9209843  63.7445688  36.6695619
  63.5493755  62.8630304  36.6374278  64.6207905  63.7334394  36.0165834
  71.4057589  68.2050180  32.8117967  72.0521784  68.4713221  33.4656000
  71.7774582  67.4175215  32.4143958  32.5243211  70.0996828  64.1204500
  31.7353892  70.4578304  64.5273256  32.4485660  70.3413630  63.1973648
  48.1824064  15.1758337   5.4696476  47.9742861  16.0035491   5.9030092
  47.6362848  15.1731133   4.6835357  47.6472855  55.7312202  45.0659657
  47.6340771  56.5728903  44.6102715  47.6545906  55.0794315  44.3650007
  69.7325468   1.5514982  46.2976074  69.5030832   2.0570861  47.0773268
  69.9260712   2.2119124  45.6323004   2.7551645  55.8819056  39.8834610
   1.8270725  55.6531715  39.9340320   2.7616477  56.7930746  39.5902753
  14.6500099  51.3685942  62.4021387  14.2888916  51.4983702  63.2790565
  14.7559536  50.4204369  62.3246479  78.0824137  77.3372793  62.5647497
  77.9954529  77.5765848  63.4874630  79.0171146  77.4298525  62.3803663
   6.5886527  46.1006594  55.7715416   6.1544186  46.7544985  55.2236652
   5.9139401  45.4428577  55.9397316  67.5733948  77.4000454  38.8978410
  67.0381832  77.4154282  39.6912766  67.1691942  76.7277908  38.3492732
  74.8470497  66.0908127  56.2475014  74.1048193  65.6305170  56.6392374
  75.3835964  65.3971720  55.8638287  59.4641685  63.0740690  67.1383858
  60.1477432  63.7092257  66.9249964  59.5019484  62.4337578  66.4278889
  73.8598537  63.7105608  20.1728487  72.9755688  63.4108496  20.3836703
  74.0975523  64.2857456  20.9001017  10.2981687  42.9514885  25.9863043
  10.3594422  43.5244751  25.2219963  10.0786960  42.0927429  25.6248832
  61.6702652  20.1237345  25.3246570  61.0742044  20.8514881  25.5016279
  61.2878466  19.3816257  25.7929111  25.0801778  76.0792017  65.2570915
  24.1895533  76.3558483  65.0414896  25.6363893  76.5690899  64.6513939
  26.7370820  51.2096930  43.0450964  26.5589762  50.4915190  42.4378586
  27.6315379  51.0517216  43.3471298  15.0696087  76.1971140  65.7533598
  15.0678945  75.4649067  65.1368427  15.2669930  75.7967901  66.6001272
   6.8574858   0.7090159  45.9625673   6.1417842   1.0839689  46.4758062
   6.4503992   0.4536935  45.1347256   6.6118705  67.2789383  38.6244893
   6.5860486  67.8958845  37.8930902   5.9488356  66.6232872  38.4083009
  57.5136948  10.7683086   6.1022925  56.8363619  10.3912103   5.5408210
  57.0744991  10.9187901   6.9393682   0.8575894  52.1732140  47.9344082
   1.0512575  51.5074539  48.5943222   1.6826671  52.6449966  47.8208208
  40.0623417  57.4518824   4.6202826  39.2859769  57.0399952   4.2410228
  39.9054670  57.4348688   5.5643868  13.4573376  57.5840616  45.1890993
  12.9003143  56.9211054  45.5970764  13.8188851  58.0786800  45.9245348
  59.0595675  57.6226616  43.4709215  58.1513882  57.4007797  43.6763954
  59.0470362  57.8451395  42.5400209  67.3857021  10.8619404  22.6531839
  67.0497322  11.2091851  23.4794879  68.1672239  10.3679705  22.9010797
  57.7505636  10.5669606  27.5010824  58.1448507  11.2114120  26.9133306
  58.2499218  10.6468999  28.3137846  69.0353632  51.1621618  32.8947878
  69.8625660  50.9935474  32.4436355  68.3631086  50.8665943  32.2808290
  79.9891567  47.1102571  60.3918839  80.3210163  46.2610388  60.1004553
  79.1909790  47.2437429  59.8806858  21.5727234  10.9084773  22.1547818
  21.9983983  10.6643486  21.3329339  22.0217752  10.3880513  22.8209186
  61.1131716  22.0022345   1.9431648  60.6186008  21.7381167   1.1673570
  61.9518852  21.5488005   1.8583758  82.2626877  36.4219975  24.3753934
  82.3160839  37.3656058  24.5269966  81.6724968  36.1027598  25.0580359
  77.6062536  35.9144235   9.0820682  77.0072365  36.4950776   8.6127621
  77.3948002  35.0391126   8.7574917  25.3394532  56.9844484  27.7980423
  26.2781858  57.1309423  27.9144454  25.2637601  56.0473204  27.6183391
   3.5288146  70.7170010  49.2116976   2.7201864  71.1724281  48.9773130
   3.6660847  70.0912857  48.5004520  60.6964111  41.3111544   6.5242898
  61.4443588  41.7490005   6.9306058  60.0962067  41.1394835   7.2499031
  58.0902338  73.4237385  57.9001284  57.2139359  73.3800364  58.2827854
  58.6087084  72.8079224  58.4179926  26.7876077  18.3470941  54.5714712
  27.6608348  18.1714368  54.2209673  26.9468307  18.8498974  55.3702593
   2.9475617  61.7539740  21.5346408   3.7785727  61.3514566  21.7868900
   3.1950051  62.5986958  21.1585402  24.5030069  64.4122982  33.8998580
  25.4508185  64.4578266  33.7741184  24.1363883  64.7286272  33.0741715
  78.8243675  70.9371185  41.1201429  79.4297409  71.4612246  40.5956745
  79.3540478  70.6198025  41.8515682  65.5306387  47.9426050   0.9580063
  66.3617611  47.5655508   1.2466201  65.2897787  48.5530853   1.6548064
  70.0868654  73.3838463  13.5002148  69.4853592  72.6628351  13.3143198
  70.8406353  73.2190371  12.9337311  30.3357458  14.1322589  61.8931913
  29.4303966  13.8242698  61.8517399  30.2921748  15.0436544  61.6038990
  36.8129325  44.3459177  22.6859307  36.5150523  43.4371376  22.7260756
  37.2528172  44.4910097  23.5235953  77.8425455  59.0754461  56.9669199
  78.7238026  59.4427061  56.8980742  77.4889517  59.1332817  56.0793114
   3.3324310  31.2975264  25.3811860   2.7740088  30.7405639  24.8387933
   2.7251574  31.9006848  25.8097315  22.7887225  61.3441563  40.0762701
  23.4873772  61.6970301  39.5252776  22.7329254  60.4207945  39.8302579
  25.6535101  37.1839380  50.6041670  24.8361254  37.6737881  50.6945038
  26.3386440  37.8230238  50.8001041  61.8513060  76.3136196  29.3036461
  62.7428055  76.6188335  29.1353989  61.4805841  76.9703007  29.8931885
  73.9917278  26.4772630  30.3896689  74.6381187  25.9458709  30.8544636
  73.1783867  25.9768772  30.4554439  70.2507162  65.6727362  38.6782336
  70.2403641  64.8211718  38.2412434  70.9245586  66.1710644  38.2158089
  73.2986021  50.0168705   1.6453663  72.5646687  50.6180143   1.5180877
  73.5724735  49.7821426   0.7587279  72.5752449  68.4385777  27.8158355
  72.5099802  68.6365032  28.7500739  71.8520594  68.9227581  27.4173379
   4.3709749  26.3414073  14.2322397   4.1042817  27.0474792  13.6435378
   5.2869314  26.5316415  14.4348896  24.2514896  43.2151365  30.2881670
  23.6022139  43.3176041  30.9839940  23.7429547  43.2554722  29.4782329
  69.4913292  41.1120605  33.8761997  69.6350670  40.8635330  34.7893286
  70.2289152  40.7258749  33.4039140  19.2360806  36.3617325  32.3338556
  19.0271521  35.4715800  32.0506382  18.6216223  36.5367246  33.0466318
  64.9127245   1.1812550  17.1547580  64.5607090   0.7642660  16.3683498
  65.0057697   0.4659206  17.7839410  34.4437289   2.6803082  51.1680365
  34.1681099   2.7510232  50.2541065  33.6569619   2.3977661  51.6342974
  80.2353287  64.7578287  27.2532201  79.5159006  64.8191929  27.8816247
  79.9461842  65.2818298  26.5061951  49.4869709  37.0743418  48.2869577
  49.6752739  37.6472116  49.0303278  50.0344706  36.3031125  48.4342051
  58.7438345  24.7666216   6.1303484  59.6781826  24.8414683   5.9363842
  58.6070728  23.8333774   6.2933928  73.7327242  64.3598080  36.4128923
  73.8089371  65.2817202  36.1669087  74.6374464  64.0564489  36.4882612
  69.7635365  75.8427811  35.2468729  68.8578510  75.7196903  34.9625969
  70.2670097  75.8790827  34.4335914  40.6646061  54.2618656   1.7530780
  41.1878538  55.0220442   2.0071912  39.7917843  54.4448090   2.1008569
  17.8773296  37.5986409  22.3505735  18.8341200  37.6152205  22.3280501
  17.6407075  38.2803273  22.9794979  62.0056295  43.0511999  35.0688910
  62.4591112  43.7412500  34.5847249  61.4524317  43.5206032  35.6932807
  30.5637717  56.2051058   4.8125967  31.0146785  56.9534588   5.2035975
  31.2142825  55.8101368   4.2320228   5.6911045  42.2685385  56.2950659
   5.1107806  43.0291176  56.2638283   6.5717286  42.6409006  56.3406658
  51.4730310  61.3738203  52.6686192  50.9148216  61.9215775  53.2205200
  51.3750696  61.7407274  51.7899799   2.5096580   0.3233249  14.3645334
   2.1323274   0.6556785  15.1790237   1.8684137   0.5533402  13.6921263
  69.2918921  68.6299181  39.3486905  68.8466454  67.7864265  39.4293785
  69.2903090  68.8126707  38.4090996  68.6610556  71.3725901  50.7972717
  68.4414625  70.9182358  49.9839020  69.0248871  70.6906176  51.3618660
  61.6491699  27.0124865  49.8989582  61.3395882  26.8363500  50.7874250
  61.6843510  26.1513686  49.4824600   7.9476011  68.3653975  20.4240346
   8.0740386  68.8458490  21.2422109   7.0242757  68.4974670  20.2089572
   4.0042493  47.1450758  41.0694456   4.4089040  46.5606642  40.4283953
   4.7326469  47.6585340  41.4187765  24.3571019  76.9154119  58.6459970
  24.7956777  76.5975761  59.4352150  23.5852385  76.3560200  58.5591602
  28.3193493   2.3664488  30.5746555  27.3864269   2.2926454  30.3735614
  28.6411715   3.0393419  29.9747586  22.2403646  58.8938713  51.9607973
  22.4021649  58.3535051  51.1874533  22.2689772  59.7933674  51.6347218
   9.4983834   6.8937927  22.3505592  10.2456117   7.2488600  21.8690944
   9.1863304   6.1694139  21.8082213  69.6666956  40.4367018  36.5345049
  70.2553988  41.0621643  36.9569445  70.1145935  39.5945477  36.6145062
  81.2951946  62.5044060  56.6320753  81.0214043  61.7392445  57.1378374
  82.1496868  62.2622919  56.2750673  77.2159107  67.1894095  67.1560010
  76.6937025  67.4695251  67.9077099  77.5878723  67.9996107  66.8075010
  14.4477284  57.9164696  59.4904804  13.8928568  57.5124359  58.8233232
  15.3274763  57.5912666  59.2993832  60.1180315  23.9880657  53.7708950
  59.5665693  23.4259796  53.2266712  60.9804535  23.5734987  53.7464333
  64.3754959  69.4050360  56.6912937  63.4762955  69.7318935  56.7201519
  64.6044970  69.4156790  55.7619476  75.6070805  34.9521971  64.2741346
  75.0907135  34.7388816  63.4968996  75.7944775  34.1044927  64.6772575
   7.9190308  45.6934595  46.5075493   7.2348976  45.7595444  45.8413458
   7.7943248  46.4676046  47.0565319  57.9017353   6.9809854  63.2360220
  57.4053431   6.1976945  63.4732676  58.8155890   6.6962540  63.2416677
  81.2466049  60.7192469  36.2599969  81.6944408  60.3461790  37.0192719
  81.3941288  60.0843000  35.5590630  26.9521880  54.8770475  44.0609550
  26.6042471  54.2028856  44.6446228  26.8057752  55.6986094  44.5298195
  72.0365429  61.7323017  21.0658860  72.6216459  61.5957117  21.8110228
  71.9080448  60.8576822  20.6987882   2.3146847  61.5163660  54.5744276
   1.8283774  61.0675907  53.8828087   2.9860300  62.0159245  54.1097069
   3.6921042  35.7246494  24.3301654   3.6207080  36.3857555  25.0186944
   3.2265323  34.9644494  24.6788383  24.6655893  57.0083952  41.2430000
  23.8256741  56.7392397  40.8710718  25.0478005  56.1989546  41.5820456
  70.0339842  59.2085838  28.4541774  69.2042303  59.1536474  27.9801273
  70.6858349  58.8802862  27.8348732  23.0413055  73.0468082   1.8283506
  23.3660412  73.4286737   1.0129014  23.7602353  73.1619692   2.4497268
   2.9220915  36.7121744  30.2510834   2.7750313  37.0878839  31.1190963
   3.6234534  36.0740614  30.3819895  14.1437864  48.7498236  61.3401318
  13.6287582  48.7474918  60.5333042  13.5735011  48.3383417  61.9895077
  24.5257926  54.2878580  27.1340632  25.0284243  53.5185480  27.4019408
  24.7501922  54.4113302  26.2117672  15.4839802  62.4576139  34.3332767
  14.7936308  61.8569422  34.0524912  15.2061832  62.7532959  35.2002454
   2.2707540  49.3633032  66.0630989   2.3118325  49.8898745  66.8613911
   3.0312115  48.7846279  66.1184883  67.8836203  73.1588316  40.7302332
  66.9817686  73.4670639  40.8190393  67.8254557  72.4190617  40.1255846
   5.6873631  39.5112443  46.9895411   6.4961350  39.4112253  47.4916553
   5.3063840  38.6333084  46.9717264  32.1557199  67.1030114  67.4160032
  32.7875598  67.6662848  66.9690881  31.3374572  67.5993416  67.3976973
  34.9331570  53.4504128   0.1210361  34.7783828  53.6436272   1.0456685
  34.5345902  54.1841459  -0.3469508  34.5299101  46.4953566  12.0841181
  33.6466289  46.1747980  12.2665763  34.9084806  46.6590691  12.9478967
  76.0389280  70.9158611  29.4835091  76.1280537  70.1550436  28.9095354
  76.8846798  71.3602972  29.4251561  18.0544972  67.1791267  50.3829908
  17.2080493  67.4407196  50.0205994  18.2309890  66.3256121  49.9872780
   8.3541566  15.9614277  43.8341618   9.2070848  15.8014011  44.2380619
   8.5611969  16.3297653  42.9752684  59.3571901  45.5880785  40.3166199
  58.7667847  46.3412333  40.3367901  60.1999807  45.9516239  40.0450134
   5.3321224  51.2248468  47.2282934   4.6320382  51.8776083  47.2248268
   5.2538848  50.7942438  48.0795813  13.4349787  28.1896925  22.8298450
  13.4492338  27.6725960  23.6352277  12.5056326  28.2778788  22.6182532
  44.1692162   3.6116678  16.6267240  44.9546337   3.3378699  17.1004212
  43.7065220   4.1826937  17.2399724  20.8638239  40.3135538  64.5795965
  21.2377453  39.4325614  64.5960093  21.3599443  40.7966661  65.2404261
   4.8322076  59.1000509  30.1189160   4.4173357  58.6405516  29.3888688
   5.4996586  58.4918499  30.4364610  50.2155447  29.8896217   5.8585894
  50.9799099  29.7110605   5.3107792  50.4333687  29.5034242   6.7069030
  37.0365238  56.2390614  13.7256694  37.3462272  57.0992565  13.4421504
  37.8104949  55.6779385  13.6772978  66.5834284  41.1126518  13.2150769
  66.6396475  40.2071190  12.9099786  65.6518793  41.2500715  13.3870018
  20.7016373  40.2446461  34.7697043  20.7160091  39.2925882  34.8677635
  21.3700271  40.4275274  34.1093683  50.7672501  25.8455420  23.0457687
  50.5815220  25.0236559  22.5916314  50.2350712  25.8056736  23.8403916
  35.9440255  60.1312876  57.9218912  35.3943253  60.2353716  58.6985731
  35.9003901  60.9803247  57.4820471   3.3394051  64.3141174  20.7145905
   3.0238858  65.1182365  21.1269855   3.2118139  64.4597054  19.7771704
  43.1901836  13.7532055  65.0122643  43.3396959  14.6568859  64.7343445
  42.2472668  13.7038469  65.1694345  18.2093799  67.5536585  40.5522299
  18.3352685  66.7600298  40.0321007  17.5508380  67.3113918  41.2032747
  24.2541170  51.1973810  25.4912233  24.9344182  51.8025589  25.7864904
  23.4319854  51.6424513  25.6967592  78.5351896  59.4077587  18.9188576
  77.9277086  58.8150597  18.4762502  78.6528778  59.0247774  19.7881699
   4.0883607  61.6268301  25.2186966   3.4830579  61.0627699  24.7373724
   3.8488024  62.5152874  24.9550939   7.5838399  64.2336941  22.4364066
   7.8094983  64.9415064  21.8328261   8.3032697  63.6080408  22.3515105
  75.9157991  54.6466303  21.8067360  76.7464495  54.7965860  21.3553309
  76.1357737  54.0480375  22.5205493  64.3987226  72.3412323  51.5782547
  64.5981264  72.6089525  52.4753618  63.4444141  72.3883486  51.5207577
  33.0145955   6.8999374   0.5154685  32.3357582   7.0051998   1.1820501
  32.5992012   6.3748008  -0.1685718   9.5629966  42.9169655  60.1891947
   9.4747120  41.9937849  60.4262114   8.6685008  43.2035017  60.0047827
  41.2710381  16.1341739  46.3918114  40.4634809  15.8040917  46.7856741
  41.8128729  15.3549266  46.2676191  38.1074309  16.5593135  33.4912992
  37.3505473  16.8937182  33.9724779  38.5429144  17.3427379  33.1553912
  26.9751215  37.0155025  32.9173660  26.9170022  36.5591192  32.0779800
  27.5142741  36.4438653  33.4639692  40.7079411  19.8984182  43.8380861
  40.2155781  19.2889965  44.3880081  41.3778210  20.2581096  44.4195604
  13.1210554  69.7127771  41.7672348  12.2062922  69.4309235  41.7663813
  13.1610489  70.3984118  41.1005020   8.8429004  62.7843666  65.9081221
   7.9514581  62.5526667  66.1686563   9.3997175  62.1715403  66.3883638
  74.1459036  59.0365648  61.8840361  74.9890089  58.5940933  61.9821262
  73.4967422  58.3618784  62.0830727  27.1999907   3.8425761  40.2890825
  26.7222548   4.2002949  41.0374403  26.7625570   4.2170769  39.5244694
   2.2033355  65.9647465  29.8412657   2.6277357  65.6167746  29.0570283
   1.2728827  65.7813406  29.7114563  72.0766497  40.7239532  46.1141157
  72.4950457  40.9947586  45.2969027  71.9358635  41.5405941  46.5931892
  31.1158919  13.6375725  12.3504210  31.9182611  13.9907718  11.9661188
  30.4997420  13.5926664  11.6192758   1.1077106  52.6963282  14.2139983
   1.0794967  51.9596434  14.8245156   0.1906962  52.9430485  14.0938079
  19.7765326  41.1010551  54.7251320  19.3239224  41.0138845  55.5640459
  19.6792436  40.2439213  54.3102932   8.0540437  72.2345066  45.4003239
   8.1022388  72.2781754  46.3553095   7.5924706  73.0338860  45.1469994
  59.6549749  29.0511203  49.2556334  59.6017599  29.4710875  50.1141357
  60.4023695  28.4571886  49.3254566   1.7496926  56.4078665  45.0950050
   0.9371524  56.0233879  45.4239273   1.6504671  57.3470831  45.2507305
  20.0106955  55.0349331   0.9655662  20.1433063  55.8958435   0.5687303
  19.1778958  55.1115417   1.4311911   2.2769806  13.7155080  26.0503197
   2.6527023  13.2442117  25.3067183   1.5853846  14.2550874  25.6672001
  10.3204608  37.0908594  56.5806198  10.8283794  36.3288593  56.3020420
  10.1952696  37.6008558  55.7803297  32.5590968  50.7991266  43.3400154
  32.7844024  50.9005594  44.2647743  32.6958370  49.8688412  43.1608248
  10.6947362  56.9801760  16.9907165  10.6093502  56.0640621  16.7267442
  10.1719451  57.4635029  16.3509381  22.2187448   5.7768506   9.2807394
  22.4692822   6.0878557  10.1506472  21.2665248   5.6889093   9.3228769
   6.4447176  30.7006669  29.8967791   6.4185238  30.0714540  30.6176376
   5.5473787  30.7214046  29.5642352  30.0807905  76.0775948  33.2712054
  30.3109002  76.5017509  32.4445415  29.7932696  76.7946148  33.8364029
  68.9494944  31.9758821   1.3409293  68.5720396  32.8092623   1.6224173
  69.5766544  31.7525363   2.0286931  82.5613499  64.9625731  24.5736122
  82.7047825  64.1638851  24.0659165  81.8248367  64.7524118  25.1477289
  46.1614704  46.6388655  51.6548967  46.3935947  46.2422752  52.4945784
  45.5877781  47.3695517  51.8855667  14.6744883  67.0016003  34.3143129
  15.4109514  67.2390223  34.8777699  15.0695980  66.4959574  33.6040664
  19.5849252  16.9467485  19.0166545  18.7257659  16.9640601  19.4382918
  20.1254535  17.5291133  19.5504248  11.5458930  53.4741020  45.9965944
  12.0104897  52.8521156  45.4366684  12.1312094  54.2294121  46.0526800
  29.4122934  31.1203480  34.4126439  28.9794469  31.7493606  34.9898982
  29.5994878  30.3686666  34.9749303  26.1136436  40.0985193  59.9124765
  25.9921980  39.4572973  59.2122507  26.0798502  40.9463167  59.4693899
  19.9649084  59.8587370  39.4332528  19.6319354  60.3155422  38.6607957
  20.8906627  59.7082758  39.2420149   8.5583359  65.5816221  20.1106906
   8.2549250  66.4894152  20.1015735   9.5088798  65.6476879  20.2019763
  53.6225939  62.1382141  21.5226650  53.2711840  62.7717209  20.8970308
  53.3263874  62.4547958  22.3760509  72.0905590  10.0609374  11.9510710
  71.3766384  10.1266229  11.3168526  72.7577639  10.6643367  11.6239965
   0.5238099  42.1154261  46.5992022   0.5475928  42.1176195  45.6422997
   1.4443217  42.1162891  46.8616676   6.7891365  14.1711009  48.1815147
   6.7898625  14.6574068  47.3570538   7.2081417  13.3373439  47.9681683
   0.3576997  71.7092276  54.0055418   0.8193260  71.9826031  53.2128239
   0.9092048  71.0216570  54.3787956  42.5109673   1.1324361  51.0991669
  41.7056227   1.4952311  51.4679909  42.6481724   1.6266781  50.2910042
  30.6967163  12.4166203  32.3768330  31.4667845  12.4161124  31.8083000
  31.0264087  12.1252155  33.2269025  35.1104116   2.6095802  39.9757385
  35.6724977   1.9808373  39.5230007  35.7164955   3.2580793  40.3339911
  69.0738010  31.5044451  35.2453399  68.9375496  32.3385715  35.6946731
  69.2920828  30.8884859  35.9447527  78.1757450  60.6843805  28.5837579
  77.8052950  59.8097467  28.4653664  77.5750494  61.1189747  29.1891718
   6.9987637  67.6983261  54.9492741   7.6680237  67.0193720  54.8635912
   6.8530661  68.0052996  54.0544128  17.1868539  74.0928602  57.6809168
  16.7876387  74.4248867  58.4850407  17.9004049  73.5304832  57.9822683
  24.4767666  40.4035902  25.7291532  25.2208257  40.4054213  26.3313174
  24.6163893  41.1704445  25.1735687  17.2165251  59.6927452  25.9637713
  17.2507167  58.8852739  25.4508829  17.8513086  60.2716446  25.5416870
  25.7447410   7.9267043  58.8085270  25.2010322   8.6967695  58.6423635
  25.4099679   7.5701678  59.6313524  54.0453672   5.6362134  33.9528060
  53.8249683   5.2805686  33.0918908  53.2933950   5.4159790  34.5025921
  19.3694627  54.3554258  53.2676077  19.2737448  53.8197565  52.4801254
  19.1119957  55.2350855  52.9916620  35.7536817  14.1196167  45.7709455
  35.8912730  13.4985852  46.4862204  35.1811528  13.6570871  45.1589727
  34.4424009   1.0131485  12.2730267  34.8417878   1.6832244  12.8277516
  33.5734415   0.8764698  12.6504672  75.7294369  19.9160361   3.8691279
  74.9898911  20.0339770   3.2729790  75.5456114  20.5076742   4.5987877
  30.1683235  25.0161743   2.1944678  30.9221983  24.8207259   1.6379561
  29.5596075  24.2948413   2.0351715  19.2157102  64.6134901  35.0212455
  19.7929692  63.8550377  35.1092958  18.4834242  64.2970085  34.4922566
  64.3558741  44.7158241   7.5902200  65.1029730  45.3113461   7.5316709
  64.6564579  44.0100479   8.1627244  28.4245777  38.3089375   7.1960044
  29.1432762  38.8635588   6.8925273  28.6559916  37.4305415   6.8941778
  62.8656912  11.0444713  22.1815896  63.4764338  10.4901659  21.6958237
  62.0018435  10.6883311  21.9738388  71.0122633  26.9418311  15.3576291
  70.8471346  26.2926769  14.6738434  71.7231607  27.4803495  15.0099897
  73.1345606  55.9739017  40.8963442  72.3661232  56.5167809  41.0724688
  73.6110210  55.9567356  41.7263603  20.5262351  14.7810459  48.9304304
  20.5100679  15.1372361  48.0421162  21.4557815  14.7399461  49.1551208
  15.4813945  65.0478888  56.6360855  16.1372244  64.3668461  56.7854118
  15.9908497  65.8503294  56.5230513   1.5085402  59.6383429  58.8533211
   1.6015784  59.0871668  58.0762911   1.6747703  60.5267334  58.5381079
  80.3870678  41.8054199  17.0865524  79.7182655  42.4388361  16.8263161
  80.0611019  40.9659719  16.7620373  50.1106453  11.8765116  10.9882450
  49.2611456  11.4642382  10.8313477  50.6752825  11.5325820  10.2960527
  22.9775047  19.8388839  22.5595379  22.8675246  20.7869053  22.6329756
  23.9230013  19.7129381  22.4795032  36.9238329   2.2997178  46.0670662
  36.2938643   2.8905877  46.4796734  37.6715398   2.8579384  45.8536339
  20.1979899  71.7561722  49.7245693  20.0643730  71.8170786  48.7787008
  20.2034450  70.8162785  49.9056625  47.7606964   2.5479043   0.7081958
  48.0424261   2.3693091   1.6053930  47.4534750   1.7025083   0.3808535
  67.4572277  66.6890621  58.3122206  66.8825626  67.3039532  57.8562593
  67.9283667  66.2373447  57.6120663  75.3656864  45.3742743  10.6455040
  74.6171284  45.5783701  10.0849354  75.6307650  44.4936943  10.3799009
  22.9497051  53.1434488  30.5368567  23.1223249  52.3020411  30.1144075
  22.4840593  52.9162931  31.3417196   1.0030393  35.5202627  55.1908064
   1.6810361  35.9266567  54.6509981   0.2085318  35.5764627  54.6599293
  56.9466639  51.9488382  45.5251360  57.6064157  51.2628317  45.6268930
  57.1402216  52.3430347  44.6746206  56.0281277  60.7822895  20.2569222
  55.2089739  61.0589314  20.6676412  56.1509943  59.8798990  20.5515838
  65.7958889  70.7462120  41.8728113  65.4273653  70.8623838  42.7485561
  65.8071136  71.6272736  41.4988661  20.5356312  76.4246798  17.5131011
  21.2432694  76.9459438  17.8922606  20.1609850  76.9867611  16.8349147
  73.7596941  44.3722916  21.7964005  74.0296650  43.7444973  21.1261654
  74.4661236  44.3520451  22.4419832  13.3824277  12.0160985  51.8925667
  13.0515563  12.9142320  51.9031572  12.9710853  11.6003573  52.6503181
   8.5913628  36.6707301  65.7206774   8.7997478  36.3544774  64.8415947
   7.8815061  36.1015582  66.0179663  72.2394276  59.9788904  41.1988688
  71.5035295  60.4810810  41.5488672  72.3508501  60.3074074  40.3067398
   6.3853222  56.1895132  16.4926302   5.5973089  56.0178518  17.0081890
   6.7048997  57.0315552  16.8167710  50.6148148  59.6185684  38.3962226
  49.8395586  59.6476698  38.9569020  51.3475800  59.7725439  38.9925265
  45.6035757   6.8969941   2.7878836  45.8328247   6.6214222   3.6754286
  44.8226213   6.3869584   2.5729328  78.1492424  48.5284662  19.1486919
  78.2553101  49.4777393  19.0865648  78.6176682  48.1848288  18.3879554
  63.6278963  47.6264095  41.6447783  64.2691565  46.9614124  41.3942051
  64.1529226  48.3997679  41.8509388  72.8971624  16.4691186   2.0630534
  73.6161709  16.1653745   1.5089767  73.3285904  16.8489826   2.8284323
  17.0226955  70.6526375  21.4624667  17.1078944  69.9308109  20.8396196
  17.6883399  71.2841272  21.1897612  71.9268894  33.7799191  23.2870126
  71.8560934  34.1932034  22.4265385  71.0210085  33.6772633  23.5786772
  18.9365900  30.3051853  27.1622777  18.8236058  29.8464179  26.3298130
  18.0845881  30.7071710  27.3317814  80.5752373  36.9775724   6.7281580
  81.0483646  36.5178514   6.0345852  80.0586796  37.6390553   6.2678897
  58.9135981  60.1389313  36.7896795  58.6798429  60.8687353  37.3632455
  58.5231733  59.3713379  37.2075295  41.0159826  29.8162770  65.3246784
  41.2242222  29.2220235  64.6037579  40.2989054  30.3554893  64.9910879
  27.8503966  75.0451946   9.8393518  27.0332599  75.3348923   9.4336504
  27.7631974  75.2958107  10.7590365  48.7096596  72.8834581  53.5536957
  48.9372015  73.5626936  54.1885948  48.7112713  72.0715284  54.0606451
  25.7573986  71.1971807  44.8585939  26.0782909  70.3190470  44.6533108
  25.0774932  71.3624954  44.2054224  16.3373888  61.9026995  50.6963730
  16.3139248  61.4575291  51.5434313  16.6421664  62.7871704  50.8989906
  63.5409355  39.2546391  31.4976716  64.0176964  39.6419334  32.2317934
  64.0888596  39.4357610  30.7339907   3.6623392  55.6065416  59.0976095
   4.1664428  56.1227942  59.7265720   3.9848778  54.7121906  59.2086840
  16.7536187  71.7541790  25.2362657  16.0369623  71.8660307  24.6116662
  16.9777060  72.6449156  25.5057120   4.6308449  53.5007095  34.9466372
   3.7578964  53.8888931  34.8873997   4.4732931  52.5980330  35.2233648
  22.1675777  10.7429087  33.2450914  22.0789242  11.4898217  33.8371158
  22.1929979  11.1319125  32.3708701  21.6748428  54.8199320  65.5256557
  20.9382486  55.2482224  65.9618092  21.4886832  53.8843155  65.6043577
  74.4348145   3.5863790  38.2100391  73.7161541   3.3120444  38.7796879
  75.2188063   3.2226557  38.6214924  55.1355603  16.7341330   0.3180753
  54.9980160  16.5661767  -0.6141843  54.4274527  16.2599280   0.7538997
  63.7963438  12.0620334  46.8400764  63.0844736  12.4197304  46.3094854
  63.9798737  12.7442992  47.4858761  33.6336350  75.7546711  18.3789515
  33.0994415  74.9655485  18.4692454  33.3225203  76.3352728  19.0734589
  58.1669235  56.2108707  54.0180397  59.1090059  56.1054611  54.1507101
  57.9263783  56.9458771  54.5820808   5.0863367  64.9216127  33.6349130
   4.7440344  64.5411110  32.8260374   5.0765878  64.1988850  34.2624497
   5.8480024  61.9522047  39.2506933   4.9212256  61.8146610  39.4466448
   6.0560590  62.7941561  39.6557403  72.4332380  37.5552869  32.5066805
  72.5547314  37.3465896  31.5804434  72.9606295  36.9045711  32.9699922
  30.4290605  51.5997267   4.5764947  30.8301616  51.9321823   3.7734866
  30.1173925  52.3826694   5.0304705  32.5410485   2.1792102  33.3263397
  32.7950883   2.2628406  34.2454171  32.0869541   2.9981419  33.1278896
  66.2142944  12.7867866  29.6059561  66.6442299  13.6405194  29.6562314
  66.5335751  12.3122597  30.3734946  21.8669534  42.9848337  38.7000084
  21.5793753  43.8934088  38.6104560  22.0635056  42.7065516  37.8054929
  10.3749096  42.0340776  15.5573928  10.9581912  41.6364813  16.2038708
   9.5090997  42.0021772  15.9643161  16.7850280  50.7051325  39.2396164
  17.4740422  51.2499094  39.6200228  17.2479343  50.1120758  38.6478114
   7.2276568  23.5064888   2.1244945   7.9827845  23.7053227   2.6780993
   6.4897990  23.9274311   2.5656351   9.5552981  33.2132721  20.0208282
   9.5863104  33.6150932  20.8890510  10.2983201  32.6099300  20.0094628
  79.4499063  17.5492191  65.1028919  79.1639137  18.3574927  65.5284834
  80.1812363  17.8172910  64.5465374  39.9446487  55.7553196  14.5195472
  40.7150984  55.1893520  14.5676601  40.2929926  56.6422844  14.6100271
  81.8715477  49.0420866   9.2684317  81.7701054  49.0154648   8.3169949
  82.5369358  48.3803082   9.4569641  30.7117677   2.8366596  41.7515945
  29.8299098   3.0838490  41.4732838  31.0304117   2.2621571  41.0554266
  66.8822002  68.7125874  12.0515680  67.0852375  67.8448200  12.4008310
  67.5904083  68.8937807  11.4336324  45.3869438  76.8381500  44.6104145
  45.5670071  76.8812037  43.6712885  45.2526903  77.7494812  44.8705721
   2.5278494  22.8155494  66.2175179   2.0008200  22.9488468  65.4296732
   1.9557853  23.0837512  66.9365740  68.3629656  59.2502356  46.6777134
  68.8363361  59.1275120  45.8548594  68.9959049  59.6742916  47.2571993
  58.5732698  14.3338442  39.0288782  59.4650126  14.6607161  38.9097667
  58.1976223  14.9022603  39.7012043  25.1700258   1.5476450  16.5273559
  24.3760633   1.8423980  16.9734228  25.6697226   1.0913268  17.2043395
  48.2983351   9.3381065  15.4338002  47.4513054   9.0200013  15.1214147
  48.2527828  10.2879000  15.3240299  50.9268141  28.9132404   8.3018595
  51.3983107  28.1790185   7.9083639  50.5821896  28.5637593   9.1236424
  12.1624994  77.6225328  48.2256031  12.3102605  76.7583704  48.6098194
  11.2819624  77.5719118  47.8536844  81.1567593  20.1350856  37.5032139
  81.1512470  19.1779363  37.5112987  82.0751286  20.3681755  37.3672485
  29.0989470  67.3759985  63.2236004  28.3276820  66.9603729  62.8380680
  29.6946311  66.6500807  63.4091663  18.5148716  49.6515131   6.9073081
  19.1118526  49.9377918   6.2160122  17.8919864  49.0764189   6.4628857
  80.7814693  22.1131778   6.8577510  81.1435032  22.9080296   7.2493809
  80.1405239  22.4302053   6.2214202  32.0806837  75.1904964  51.6617680
  32.1042776  75.6373215  50.8155823  31.6972280  75.8314180  52.2604465
  56.2182760  22.9128885  38.0667996  56.3552141  23.2339621  37.1755123
  55.6247234  22.1688962  37.9648161  20.5595088  52.4340582  54.8534298
  19.7393250  51.9410324  54.8748016  20.5045867  52.9557228  54.0527534
  13.6345005  66.5108204  30.9070134  13.6023355  65.5570745  30.8324051
  12.8480148  66.8132448  30.4529095  14.6653497  54.9611998  29.6529174
  15.5489397  54.6333551  29.4855285  14.5665812  55.7005644  29.0530729
   8.0051947  51.4104271  35.4964137   8.5898226  50.9010983  36.0576844
   8.0933839  51.0091019  34.6318960   1.7393692  72.6328802  25.6133032
   0.9982453  72.0423269  25.4783583   1.9026220  73.0134201  24.7503042
  50.2683306  10.3195274  49.5578337  49.4297695   9.8903352  49.7276640
  50.4052639  10.8864820  50.3168058  10.4223263  53.4533644  61.1568880
  11.0442078  52.8800154  60.7088184  10.0013018  52.8894901  61.8057442
  11.1377072  72.8876686  48.0160952  11.9116557  72.8071547  48.5735464
  11.3293040  72.3343229  47.2589064   0.3744515  48.0848026  64.1035891
   0.8968101  48.8857841  64.1460562   0.4478678  47.7042961  64.9788380
  47.4523878  28.3303857  20.4281545  48.3148336  28.3914304  20.8388734
  46.8497372  28.1837749  21.1572289  53.2685900   3.4485024  48.1168079
  52.7099276   3.2585454  48.8704967  52.6643896   3.4917060  47.3756599
  25.0094891  19.1595972  37.1572757  24.6505713  18.8560128  36.3234615
  25.6680226  18.5041535  37.3874044  52.9195070  64.7355413   1.4139146
  52.2803020  65.4154825   1.6268262  53.1980276  64.3941116   2.2636697
  13.9402914  67.4302959  40.9100819  13.8613665  68.2728338  41.3574505
  13.1074941  67.3243427  40.4502439  76.6721058  15.0185359  12.7947283
  76.6833210  15.6022239  13.5532892  76.3305044  14.1912711  13.1341004
  42.2756100  71.6948557   3.8728744  43.1520605  71.8272877   4.2341629
  41.6843748  71.9028854   4.5963350  67.4404097   9.1379416  36.9924688
  67.7792597   8.2858688  36.7179108  67.3271227   9.0568054  37.9394722
   7.7528059  61.8190193  49.6276283   8.6734933  61.8035173  49.8890209
   7.3155874  62.3147774  50.3199387  78.3615732  51.1721230  13.2324505
  77.8730822  51.7332840  13.8347042  78.2549047  51.5885782  12.3772192
  64.3628693  10.9765208  40.2328062  64.0037012  10.6742918  41.0670042
  63.8772774  10.4845774  39.5706701  81.6101360  14.7359359  59.6970034
  81.4914608  15.3858531  60.3896475  81.9119167  13.9510071  60.1542234
  34.6847510  19.7022486   0.7354599  33.9257789  19.5066547   1.2849475
  34.7470832  18.9563489   0.1388201  59.6443224  29.8551226   1.9926387
  60.4460478  29.3460536   2.1122995  59.6359158  30.0731635   1.0606413
  54.4821739   9.6792936  62.3005772  55.3332663   9.2974317  62.0859814
  54.6809387  10.3634012  62.9398918  71.3008595  65.0158691  14.9977040
  70.9902477  65.3553820  15.8370411  71.0911179  65.7055569  14.3679643
  76.6492033  54.7890186  41.4041615  76.4050293  54.5524883  40.5093622
  75.9660625  55.3974056  41.6859722  21.4076447  58.7883139  31.9252944
  22.2324228  58.9357281  32.3881531  20.9205341  59.6045542  32.0380068
   6.4203680  64.5763826  28.0901599   7.0575392  63.9296484  28.3934474
   5.6179780  64.0739965  27.9486871  78.9105129  63.7334347  31.6786027
  79.6848202  63.2901621  32.0252752  79.0950012  63.8433933  30.7458091
  81.8123627  16.4194345  18.9296448  82.6587009  16.8635762  18.8778758
  81.8437576  15.7623804  18.2342839  35.5491829   6.4736027   4.9594679
  36.0988331   6.9933832   4.3729985  34.8707533   6.1088085   4.3912351
  63.5182714  73.3119965  -0.0576987  64.0367270  73.1193924   0.7235409
  62.8171444  72.6604414  -0.0464979   5.5149573  71.2897396  53.6810160
   5.6823146  71.8257809  52.9058504   6.0783321  70.5240536  53.5689211
  29.7047663  62.3995304  35.6636500  28.8709497  62.6878357  35.2923536
  29.5811510  62.4662161  36.6104889  58.5433578  26.0184908  10.3666377
  59.2439175  26.1386800   9.7255450  58.6458778  26.7514372  10.9736896
  52.2912931  17.9751468  49.6988344  52.1575356  17.4327707  48.9215517
  51.4937210  18.5003006  49.7645903   2.2520113  35.8349180  45.4176426
   2.3365179  35.0824356  46.0031843   1.3413142  36.1130905  45.5150175
  13.3212435  14.2031252   5.0368857  12.6811016  14.9126852   5.0914192
  12.8607142  13.4997153   4.5793268  28.3020878  26.8025112  45.1153326
  27.5862312  26.4725184  44.5722961  27.8925943  27.4598479  45.6778765
  38.3348608  51.6098595  41.8561220  38.9785647  51.2660599  41.2367058
  37.8449440  52.2619772  41.3551712  45.4192400  73.0381536  33.4999609
  45.3380156  72.9715586  34.4513798  44.5940781  72.6881552  33.1640506
  21.1436081  70.9335995  57.4998331  21.7424870  70.1962614  57.3819113
  20.3215575  70.5318737  57.7810431  48.9046288  13.0002868  44.7272205
  48.8844872  12.9966462  45.6841993  49.6883678  13.5033524  44.5060635
  29.6817231  59.0413761  46.6404247  29.8198938  58.2636023  46.0998583
  30.3297877  59.6709394  46.3243628  34.6913838  76.0222340  36.0140014
  34.1945076  76.5549898  36.6349006  35.5912352  76.0524559  36.3389397
  21.9792318  59.2065382  48.4135294  21.7957735  59.8335361  49.1131401
  22.7890301  58.7745762  48.6853123  82.0097006  28.3331728  10.8485651
  82.1155251  28.0816841  11.7660546  82.8565149  28.7058949  10.6031799
  25.4469132  77.1898556   8.3324730  25.7682562  77.4384642   7.4657762
  24.6482825  76.6918659   8.1580412  31.8632817  57.0312071  53.9179945
  31.2725210  57.1011877  54.6678829  31.4088750  57.4900866  53.2114697
  41.5768194   8.0258620  32.6227570  41.0980558   8.0299389  31.7939043
  42.2852659   8.6563879  32.4932432  51.0416365  40.3822613  63.7706232
  51.5684748  39.6452451  63.4616232  51.6700745  40.9622812  64.2005873
   1.8837708  54.2055750  19.1569328   2.4595740  54.2755318  19.9183702
   1.9462648  53.2876253  18.8929248  71.9204330  67.4396944  37.4022770
  72.0864439  67.7118540  38.3048296  71.2069178  68.0062008  37.1086764
  29.6192265   9.9004525  51.6335058  28.6998749   9.6545994  51.5306520
  29.6010160  10.6545126  52.2228193  21.2509441  64.0439510  63.5944510
  21.8088126  64.1962099  62.8316689  20.3664088  63.9771891  63.2347631
  44.0293837   6.1746269  25.9909129  43.3905172   5.9496516  25.3145456
  44.5510769   5.3797448  26.1015010  36.5167522  68.2467699  63.1987524
  35.5813813  68.4359217  63.2731438  36.5988493  67.7642059  62.3761797
   7.7993757  77.1032572  49.4617271   7.5927645  76.2496376  49.0810966
   6.9952214  77.6122189  49.3591309  36.6379023   2.8529114  31.5738487
  36.7043257   2.4200799  30.7226849  36.2602401   2.1893495  32.1511579
  53.4433174  14.6249115  32.2516561  53.2171488  14.0031540  31.5599227
  53.9763021  15.2879488  31.8128610  27.9015422  73.6384010   3.1994480
  26.9540644  73.6473703   3.3352259  28.0423164  74.2229748   2.4546742
  28.7082815  61.1307764  63.9223099  27.8655696  61.3522530  63.5260534
  28.6590075  60.1877022  64.0785551  11.9431341  68.7152004  62.1637487
  12.3114419  69.1567230  62.9290152  11.1348140  68.3149385  62.4841261
  19.0502739  64.9256897  49.6439028  19.7647464  64.3074894  49.7974825
  19.2765212  65.3527641  48.8176775  56.7188740  21.8500686  29.7335863
  56.3902617  22.6420379  30.1590610  56.3857460  21.9035983  28.8378239
  77.6156425  47.2625828  58.7979507  77.6053524  46.5105295  58.2058859
  77.0121956  47.0221949  59.5010090  33.8405681  71.0504293  46.2625122
  34.5716882  70.7799339  46.8179607  33.5081124  71.8474007  46.6754770
  17.5294936  18.0664742   5.6123948  18.0168974  18.0003631   4.7912380
  16.7276108  17.5677919   5.4557723  26.2579393  61.9165516  35.5924201
  26.2019634  61.5418720  34.7133803  26.1865234  62.8611612  35.4551458
  58.9838600  17.7621496  65.2607822  59.2176390  18.6841857  65.3676796
  58.6789274  17.4904525  66.1264753   8.3684301  73.4118271  62.9023886
   8.9803863  73.9717102  63.3801603   8.4451473  72.5569391  63.3260822
   3.6385199  57.4593925   5.3951788   3.1399634  56.6485929   5.2937937
   4.3608850  57.2251129   5.9778732  17.5852513  62.6596165  38.3917975
  16.9076979  62.0532227  38.6908603  18.1156945  62.1449947  37.7834988
  81.3940239   3.3549491   2.6091406  81.6021156   3.4679314   3.5365897
  81.0917091   4.2174649   2.3247060  27.3589635  18.3252120  33.5057974
  26.5917563  18.8761008  33.6611819  27.6053214  18.0071568  34.3743467
  50.2357721   7.2623616  14.3941176  51.0695648   7.6147676  14.0829432
  49.7287083   8.0340976  14.6461964  54.1888523  26.0177398   4.9169707
  53.7567091  25.2134681   4.6295089  55.0568390  25.9800100   4.5152152
  15.4438710  73.4835434  11.7387521  15.5897439  74.3530178  11.3659716
  14.7452950  73.1074619  11.2032270  56.4358568   4.2804003  57.2383928
  57.0682335   3.6365175  57.5573730  56.9714069   4.9580833  56.8258858
   3.4831187  59.2709875  19.6283078   3.4979007  60.0137615  20.2318788
   3.9439148  59.5852757  18.8504112  46.4994574  11.3202953  41.9752884
  46.8618107  10.4694200  42.2221518  47.2665548  11.8686581  41.8106890
  65.1573372   4.1434333  38.2667303  65.2317905   4.3892810  39.1888189
  65.4346657   4.9242538  37.7875209  30.9176946  69.8290682  35.6361747
  30.1158333  70.3511333  35.6097865  30.9753752  69.4345379  34.7659731
  57.7870989  40.6188011  47.0239735  58.0884552  40.9906101  47.8529358
  57.1840286  39.9208474  47.2796965  23.1191397  50.3457785  60.8920860
  23.1288648  51.1105490  60.3165340  23.1434059  49.5971584  60.2960920
  16.3615763  57.9625750   5.5847114  15.8704615  58.5497665   6.1593753
  16.5212166  57.1838331   6.1179173   5.4581022  65.9312630  23.4007573
   5.9011710  65.8542347  24.2457342   5.9680492  65.3755426  22.8113818
   5.9424055  24.9661088  29.9520826   5.7507133  25.9037185  29.9713492
   6.8546605  24.9139595  29.6669459  14.0441692   7.9580528  53.3032370
  14.3413401   8.2837516  54.1528463  13.2320869   8.4357721  53.1343031
  40.2823448  59.7112894  30.2189374  40.7587910  59.1605377  30.8401442
  39.4218540  59.8350096  30.6195402  76.5012074  75.3057718  29.1552663
  76.4563179  75.5344391  30.0836658  75.9150505  75.9292555  28.7264132
  13.8465261  57.5878954  10.7107937  13.3896565  57.1206856  11.4102364
  13.1476772  57.9081917  10.1404870  28.7681198  52.1420765  35.0664449
  27.9179096  51.7548800  35.2749062  28.7283278  52.3151636  34.1258669
  38.8067842  73.2466125  42.8873682  39.6538091  73.0433226  43.2841730
  38.5194564  74.0443134  43.3316040  65.4175758  40.7194233  33.0768037
  66.2010288  40.7645178  32.5287175  65.5309534  41.4236641  33.7151003
  36.0777760   5.4643905  18.9362347  35.5698919   6.2539399  18.7494242
  36.6595507   5.7178086  19.6528578  44.9743509  25.3826880  59.4131517
  44.3592548  26.0619688  59.1366339  44.6324539  25.0777149  60.2535868
  48.5584831  77.5038576  36.8074656  47.8642082  77.8369427  36.2388992
  48.1124020  77.2799540  37.6242304  23.1335545   2.8464139  52.1685028
  23.4528875   1.9716106  51.9471931  22.6780725   3.1416717  51.3800907
   6.7260516  73.5183668   7.0690399   6.4134735  73.8465357   6.2259316
   7.0286000  74.2991972   7.5327235  82.6418877  63.2359743  27.2753882
  81.8242168  63.7163830  27.1455312  82.6984310  63.1110620  28.2227159
  17.1833444  18.2965779  25.3236651  17.7544165  17.9744494  24.6262836
  17.0771217  19.2289221  25.1347661  65.9520674   9.5348984  25.5836558
  66.5126896  10.3010058  25.4611182  66.3024426   9.1039395  26.3632345
  27.7311778  65.1416636  20.6161737  28.5529375  65.4023361  20.2002478
  27.0729351  65.2394438  19.9281430  37.5182939   7.1307182  20.7303858
  37.3611808   8.0704021  20.8228087  38.4552264   7.0270413  20.8966422
  47.7467775  70.2334118  50.7150841  47.8832388  71.1762190  50.8085060
  48.6112261  69.8503494  50.8641577  46.0979891   7.8835249  14.8733568
  46.3329887   7.0298940  14.5096004  45.5581284   8.2918715  14.1965711
  72.1537447   5.7368326  43.6333752  71.3282442   6.2177926  43.6921740
  72.4085617   5.8099532  42.7136183  12.5604701  40.4438496  66.1512661
  11.6689003  40.7773161  66.0506010  12.5519180  39.9874616  66.9926167
  21.9477439  16.5511012   3.2565877  22.5007463  16.5093851   4.0367675
  21.9221473  17.4808884   3.0305922  52.6950312  41.4973164  54.4299412
  52.2611189  42.2863150  54.7546434  52.1783018  41.2362766  53.6676502
  -0.0979905  31.0264468   1.2018435  -0.2226583  30.2111435   1.6876136
   0.5671313  31.5022993   1.6992450   9.4877738  31.0800791   8.2276112
   8.7674725  31.0790181   8.8580054  10.1454175  31.6568184   8.6163408
  70.0840473   3.5334766  15.1609147  70.6355286   4.2586946  15.4544401
  69.7148323   3.8341898  14.3305624  82.7667661  43.9539862  12.4149716
  82.5902221  43.2109737  12.9920352  82.0514474  44.5662689  12.5871968
  39.8158479   0.4880203  35.9340978  40.3046179   1.3097405  35.9800482
  39.9282241   0.0938064  36.7990828  36.1225319  24.3214822  65.9540319
  35.3927135  23.7387204  65.7443094  35.7939172  24.8701191  66.6662407
  73.8940907  60.5124283  47.3727751  74.4812393  59.9222708  46.9003296
  73.4536505  59.9515629  48.0112696  26.5865040  76.6994810  56.9035292
  25.6696844  76.4989662  57.0918560  26.8653488  77.2529840  57.6329899
  55.2085590  68.4220266  41.1428881  55.0515032  67.5387430  41.4766216
  54.5890570  68.5184526  40.4195976  59.7554398  74.9806738  66.1165094
  59.3938923  74.9311161  67.0014143  59.6658564  74.0924788  65.7710838
  74.4577026  24.0237141  63.4259653  74.0939999  23.3561015  62.8443766
  74.0642929  23.8385701  64.2787170  28.0379605  27.7728534  51.4800262
  27.5353503  28.1933618  50.7823229  28.7179828  27.2794604  51.0213709
  81.4380550  27.2452903  43.3074903  80.6613827  26.8728089  43.7249565
  81.9152641  26.4873314  42.9698420  21.3973808   9.5292360  39.7149754
  22.2787642   9.7937196  39.9784970  21.4141774   9.5595366  38.7584043
  38.4115100  67.6135683  10.5961359  38.1058836  68.4974051  10.8002508
  37.7817941  67.2845554   9.9547005  35.4587960  71.6931963  18.6631560
  34.8180413  71.1592197  18.1935465  34.9989557  71.9806480  19.4519198
  66.2144518  28.9940834  23.2423115  66.0043716  29.4042540  24.0812731
  66.8007231  29.6162343  22.8116775  80.1826286  14.1094732  23.6327004
  79.4084787  13.5551059  23.7306666  80.6488037  14.0188932  24.4637871
  29.5409298  68.8074350  55.2772474  29.9634933  68.8189507  56.1360455
  29.8101044  69.6292210  54.8668289   7.3983151  36.5308738   6.1104512
   7.8811336  36.9362140   6.8307400   6.8862814  35.8369851   6.5258688
  75.3727388   9.3565655  66.0381413  75.6590033   9.4194329  66.9493675
  74.4469357   9.1198575  66.0937214  30.2274704  24.9118757  61.6306973
  29.9774504  25.8204722  61.7985582  29.5458126  24.5799208  61.0464191
  37.8009605  67.5546646  19.0646219  37.9896450  67.2950506  18.1628287
  36.9513631  67.1572018  19.2555094  62.9108286  11.9683230  66.7588997
  63.5735750  11.4833057  66.2672186  62.6794434  11.3889205  67.4848366
  41.4431715   1.8187907  41.0456038  41.5580368   0.9069902  40.7779121
  41.8104267   1.8572284  41.9287062  64.5260429  76.8113804  22.4413180
  65.3670788  76.8553782  21.9863963  64.3865395  77.6983166  22.7731490
  14.5192575  47.2046471  36.0106874  15.0465524  46.4482355  35.7537174
  15.0799620  47.9594660  35.8315420  13.2091486   9.6757686  19.9433184
  12.9155004   8.9274114  20.4628992  12.4355400   9.9399388  19.4453466
  59.3559694  34.0021849  59.1964149  59.4628286  34.2806482  58.2868671
  60.2476501  33.8365340  59.5025206  78.5857058  41.9220448  63.1734180
  77.8967285  41.6953230  62.5488043  78.7973642  42.8344011  62.9758263
  10.5459607  28.3418655  38.2043576   9.7363126  27.8959489  38.4530759
  10.6324434  28.1754255  37.2657156  21.3580990  52.2516537   6.6310143
  21.7939186  51.5784740   6.1084068  20.8652616  52.7681589   5.9933889
  20.8220458  76.4110088  37.5394082  20.9444094  75.5325747  37.1793842
  20.4256749  76.2647581  38.3983231  44.3380690  74.0423012  28.1947231
  44.9585962  73.3162451  28.2580829  43.7331676  73.9046955  28.9236903
  15.3107917   6.9762725  29.4236565  14.5100129   7.4870545  29.3049693
  16.0016787   7.6322001  29.5167494  11.7457223  19.3761849   1.0981387
  11.1443770  19.7758520   1.7265335  11.9384420  18.5138440   1.4661878
   2.4148685  26.4662099  16.7567539   2.9103303  26.4365888  15.9382963
   1.5151699  26.2647057  16.4995170  25.5476785   2.6718360  10.0172567
  25.3568411   1.7427246   9.8885518  25.4205704   2.8147751  10.9551501
  11.6664159  22.1044636  10.1352203  11.3120902  21.2153220  10.1247299
  10.8991623  22.6668048  10.2416432  69.1368628  62.2352934   5.2839065
  70.0754929  62.3836517   5.1690525  68.9497900  62.5564337   6.1660099
  64.4940567  18.2463706  14.9829531  64.7516060  19.1597533  15.1079726
  63.9817572  18.0330718  15.7628787  57.5310850  52.3528194   7.8955436
  57.8512383  53.2527685   7.9574382  57.8004742  51.9456148   8.7188560
  29.6205997  70.0457382  30.7595134  29.3479800  69.6803665  29.9178410
  28.8340044  70.0068474  31.3035607  27.2071266  37.8285909  64.1171503
  26.6162109  38.1430483  63.4329271  27.9995990  37.5677252  63.6479282
  59.1839600   2.1238399  16.9080913  60.1299763   2.0410764  16.7879510
  59.0391827   3.0621433  17.0299876  46.3060760  77.6498461  20.2760482
  47.2048569  77.4897385  20.5637836  45.8140612  77.7774286  21.0871434
  42.4918795   5.8356261  63.4138393  42.5794363   5.4676777  64.2931414
  41.5681076   6.0770583  63.3461237  71.0978127  69.6302414  45.6140709
  71.7131424  69.3149233  44.9521255  71.2359524  70.5771255  45.6377792
  10.1400304  74.5511341  38.2355022  10.4217052  73.6397839  38.3150959
  10.2022016  74.7401381  37.2992110  14.9369371   0.9912299  14.2780733
  15.1114380   1.4370638  13.4492111  15.8037460   0.7666653  14.6163702
  33.5810471  64.1793346  33.3555007  32.8825450  64.8293161  33.4319949
  33.1812453  63.3619928  33.6527252  39.3836331  60.0356770  22.5134945
  38.4771752  60.3126860  22.3799562  39.3774891  59.0971947  22.3252249
  76.1647749  64.0920639   6.5429085  75.4833317  63.4684753   6.2919056
  76.9218397  63.8464451   6.0111570  24.7979999  59.7288561  44.1806173
  24.8470926  59.8307610  43.2301235  24.2083073  60.4266739  44.4661760
  19.2188334  26.6215658   5.8563346  19.0722632  25.7182646   5.5756235
  20.0316858  26.8787122   5.4211581  39.5288491  71.9777250   8.0319345
  39.7678471  72.2866583   7.1580517  38.5717964  71.9933510   8.0380613
  34.4263792  49.1850424  17.2063363  33.9863896  49.7946072  17.7988493
  35.1124978  48.7849236  17.7405429  15.8174825  30.7012248  22.2895217
  14.9393404  30.4644108  21.9911623  16.2996697  30.8942842  21.4854956
   7.5473976  34.3401098  12.9487300   6.9577378  33.6038542  13.1113875
   8.1373894  34.3454981  13.7024629  42.2235489  64.1018963  26.4989781
  42.2889137  63.3334875  25.9319663  41.3114786  64.1084051  26.7893457
  73.7612343  32.0052409  20.7280231  73.6547565  32.7004004  20.0786781
  74.5035934  31.4916968  20.4095840   3.8754329  14.9922824  44.7358322
   4.4432509  15.1637518  43.9845562   3.8363695  15.8273458  45.2020645
  68.3200979  23.4094429  17.4622583  67.7048588  24.0987754  17.2122025
  67.7788782  22.6244855  17.5468266  76.9092655  22.8459954  62.3250723
  76.9208765  22.6523519  61.3877392  76.1075735  23.3525729  62.4550772
  23.7089396  74.9949789  61.5397549  24.4295192  74.9829292  60.9097910
  23.7658381  74.1495132  61.9849348   3.8180327  73.2260275  14.9241698
   4.1369006  74.0087557  14.4748461   4.3930376  73.1350565  15.6839883
  75.0214005  12.9267764  47.7834511  74.4903755  13.2301199  48.5198116
  75.0559282  13.6757863  47.1884537  62.4879313  77.3179817  62.1010113
  62.4419022  76.3636589  62.1591377  62.2806978  77.6220322  62.9846621
  54.7186613   1.1595120   5.7704103  54.5085430   2.0622879   5.5315024
  55.6558466   1.1750583   5.9645224  11.4865971  42.7225590  48.7158775
  12.0353031  42.0416880  48.3265638  10.6001043  42.5129652  48.4218836
   2.7292082  16.4113069  39.8675752   2.5300622  16.8060136  39.0185881
   3.6820489  16.4668810  39.9399447  66.2640858  15.5620706   1.7991632
  66.6324472  15.7469988   2.6630750  65.4190874  16.0117435   1.7978269
  46.7743397  41.3607025  16.0584497  46.6378927  41.1969662  15.1252818
  46.1943769  40.7388973  16.4980364  58.3506441  50.9008121  40.9572077
  58.7900305  50.8771753  40.1071405  57.4190712  50.9546232  40.7438946
  70.0275564  67.3438025   4.7091994  69.1935587  66.9473839   4.9612516
  69.8984385  68.2820415   4.8480272   4.5415491  49.7941446  34.2632723
   4.2313734  49.3207359  33.4913206   5.0082046  49.1349554  34.7770143
  69.8215342  23.6161089  45.6862640  70.5582333  23.0060482  45.6498289
  70.2268696  24.4737434  45.8143091  33.0137968  49.5887518  30.1909542
  32.2179914  49.2212820  30.5755234  32.7168036  50.0137949  29.3863654
  78.2611990  36.4361572  38.8622451  77.6899338  36.0840654  38.1796646
  79.1292334  36.0943627  38.6479521  73.4581280  47.4546242  49.0850306
  73.5155535  48.2678270  49.5866680  74.2156982  46.9435310  49.3698120
  76.9697523  11.7291045  31.6359043  77.5576496  11.1079359  31.2060690
  77.4837303  12.0820689  32.3621774  58.6168909   6.6293502  52.0177126
  57.8297567   6.9946820  52.4216700  58.9266300   5.9758151  52.6447582
  19.2131853  41.6234875  10.1866150  20.0078511  41.9575500  10.6027162
  19.0983653  40.7485151  10.5573845  49.5870066  52.1616793  38.0696583
  50.3558159  51.7105865  38.4184766  49.7835875  52.2870779  37.1412945
  57.4010038  27.8125882  35.4214478  57.7656221  27.9597569  36.2941623
  56.6358757  27.2574902  35.5720282  48.4260511  11.2179470  38.1737018
  48.1754112  12.0709860  38.5282946  49.2159414  10.9795594  38.6589622
  76.9668245  18.0639350  59.0156412  76.2642193  18.7059379  59.1176701
  77.7655268  18.5890198  58.9647150  52.7151871  19.9110448  22.9367757
  51.9432211  20.2347207  22.4725151  53.4556532  20.2201200  22.4148417
  77.1705866  48.6306906  12.7305090  76.4250803  49.0640736  13.1459999
  77.8770113  49.2751265  12.7740586  52.2792196  62.6465130   0.0508198
  52.5379658  63.3739138   0.6166539  52.4461555  61.8636560   0.5757027
  55.8485365  33.7954473  11.3887477  56.4778233  33.7933421  10.6674826
  55.1387024  34.3615651  11.0856366  66.4234495  35.9291816  58.1081057
  67.2719622  36.2762761  58.3833838  66.4168167  36.0390019  57.1572495
   3.1051594  42.9692650  47.7988386   3.0449536  43.7500525  48.3492708
   3.9047134  43.0971622  47.2883606  28.4611130   7.9750812  25.4071641
  28.3258247   7.2449446  24.8031521  28.6110044   7.5590295  26.2560844
  35.1402378  73.4847832   1.4604416  34.4142222  73.9605331   1.0569675
  35.0314856  73.6335278   2.3997390   0.5798698  36.8848181  36.0618830
   1.5094636  37.0984173  35.9814954   0.1879620  37.6648641  36.4545250
   1.5930372  45.4747248  26.8335438   2.4838594  45.8133554  26.7441177
   1.2322898  45.5127811  25.9477425  59.9096870  47.3718262   1.7091207
  60.2850819  47.7129507   2.5208756  59.0094233  47.1422815   1.9394815
  14.1944861  47.4325943  38.8207674  14.6224225  46.5830469  38.7140942
  14.3182456  47.8705311  37.9786730  22.2241259  22.6777649  46.7496252
  22.2619820  23.5122800  46.2823105  21.7774272  22.8832030  47.5708961
  36.4340401  17.6872122  64.7692585  36.4059234  18.4508228  64.1927671
  37.0310092  17.9404962  65.4733229  39.4716525  56.8200636  65.8678961
  40.3169537  56.5975380  65.4777956  39.6339869  57.6354837  66.3422060
  61.1069536  36.7937875  16.1014724  61.2545967  37.0575261  15.1932466
  60.8131313  35.8847308  16.0421550  62.5583029   2.7532560  58.6612129
  62.1548891   1.8919447  58.7690592  63.4938526   2.5974238  58.7904167
  24.7923136  24.3899655  23.6662078  24.7759056  23.5835814  24.1816759
  25.0309038  24.1054559  22.7839613  78.7071800  13.9525747  27.1010375
  79.3299389  13.4065247  27.5808597  77.9476452  13.3862603  26.9645500
   2.3709294   3.5693154  33.6142182   1.5523601   3.5753772  33.1180954
   2.8259307   4.3639329  33.3353114  39.8630214  63.6488008  28.0734110
  40.4472589  63.0784798  28.5730433  39.6145606  64.3369627  28.6906099
  73.1360388  20.7561660   9.0634823  72.7512455  21.0960937   9.8713267
  73.7494183  20.0818682   9.3555886  37.3523116  56.0155201  41.9797134
  36.8106961  56.7997122  41.8906927  36.8867803  55.4739952  42.6171017
   4.7262228  54.0631104   3.6953026   5.3831625  53.6951780   4.2863083
   3.9115164  54.0376568   4.1971362  66.8455315  46.5899229  20.8067203
  66.8093681  45.6340265  20.7722378  66.1434889  46.8773746  20.2229881
  77.0957947  28.9992023  44.6299171  76.8211651  28.5445261  43.8336229
  76.2793112  29.1830277  45.0944567  55.6467915  32.2143364  13.6586607
  55.7705593  32.7355576  12.8654134  56.3431597  31.5584445  13.6253560
  10.8678365  32.9225492   5.6746745  11.7607319  33.2306814   5.8296776
  10.3127027  33.5644293   6.1174500   8.5727024  31.4082479  33.2209301
   7.6880026  31.0581303  33.3256054   8.6113244  32.1470523  33.8283062
  70.7566595  23.2141113   2.6163876  70.3094769  23.2794523   1.7725924
  71.5167952  23.7893724   2.5297910  29.8621297  57.1595478  16.1257625
  29.1645050  56.5041924  16.1338735  30.5796933  56.7396545  15.6513906
  82.1420574  34.9234915  13.7523842  83.0048752  35.0677443  14.1409242
  82.2510910  34.1421747  13.2102704  81.8924999  32.7449346  43.4663105
  81.3836193  33.3557105  42.9331923  82.7925396  33.0646753  43.4035349
   1.6114117  10.4900634  59.5237303   1.8446788   9.7246385  58.9984274
   2.4454841  10.9287989  59.6912575  58.7293911  20.8066845  21.8379021
  59.6164179  20.4505229  21.7872787  58.7960243  21.5272808  22.4644256
   5.2641469  60.2021456  32.8853011   4.9617481  59.9565315  32.0109677
   6.1097056  59.7632790  32.9783511  68.5184002  10.9060562  12.5248921
  68.1972027  10.3999245  13.2711458  67.7438259  11.3588870  12.1914124
  76.7407560  22.5555539  32.3736835  76.0979366  22.8506756  33.0186009
  76.4176321  21.7013645  32.0870066  82.5490879  13.6465240  22.2730064
  81.6157608  13.8502645  22.3331857  82.6409963  12.8084338  22.7262068
  81.7603302  53.6214876  25.6955123  81.7986965  54.1260099  26.5080500
  82.2184849  52.8058529  25.8981729  46.6170263  76.8902683  13.1531167
  46.9034815  77.0348644  14.0549290  45.9831381  76.1756945  13.2148242
  17.6431859  27.4455047  35.6053758  18.5897481  27.3190475  35.5401206
  17.4612761  28.1916356  35.0340366  58.5214663  31.7718959  48.8207722
  59.0236568  30.9645605  48.9314222  57.7074289  31.6150951  49.2993021
  72.6543045  75.1363659  41.6900873  71.8632030  75.1199055  41.1514616
  73.1906796  74.4203043  41.3498116  67.7661943  40.4859686  31.7037940
  68.3419847  40.7229328  30.9767818  68.1760406  40.8820105  32.4728251
  19.1663563  14.5569050  22.0193315  18.9986241  15.4313147  21.6679001
  20.0120974  14.3072975  21.6469789  30.7320189  63.8317442  30.2390957
  30.6252742  63.7849855  31.1891747  31.6222072  63.5167646  30.0823045
  33.3482099  71.4869976  25.8459139  33.2101393  71.9422579  26.6765213
  34.2982316  71.3894606  25.7812810  11.0189307  52.8410482  49.6100140
  10.9771466  53.4101200  48.8414812  11.9397938  52.8578568  49.8707056
  20.1749158  41.2286139  42.9764128  19.3014336  41.3486004  42.6037693
  20.6309557  42.0485258  42.7866793   9.0102082  19.2058134  44.2055845
   8.0914330  19.4591177  44.1165876   9.2755711  18.9526117  43.3214474
  68.6883688  18.2923591  14.4151962  67.9175854  17.7427471  14.5567966
  69.3796873  17.6770365  14.1708791   3.7157556   7.5703615  65.0420046
   3.9200059   6.6472489  64.8924160   3.2191965   7.8343666  64.2674303
  77.6045275  64.6843815  23.0595589  77.6705790  63.9709711  23.6943102
  78.3143091  64.5192623  22.4389338   5.7185864  48.2197380  58.8504124
   6.2240618  47.9554319  59.6190929   6.3391936  48.7124634  58.3134747
  12.4641442   2.0723535   6.3430041  12.5458717   2.9560846   6.7015731
  12.9617071   2.0985305   5.5257046  23.9081407  63.2934523  46.7219925
  24.6996927  63.3003664  46.1838198  23.4008884  62.5516367  46.3923883
  78.4089756  39.9845743  13.6929345  78.2755184  40.8245373  13.2537472
  78.4051180  40.1988077  14.6258450  72.9574394  63.9307547   5.7861495
  72.6160383  63.3728456   6.4850175  72.8996229  64.8187637   6.1387557
  61.7446470  11.2359774   9.3779063  61.5427494  11.8377924  10.0943470
  61.1483955  10.4987609   9.5091438  35.4490113  57.8041267  41.4042044
  35.8254409  58.2299328  40.6339931  34.6994853  57.3148298  41.0650396
  14.1090155  59.2109489  25.5976200  14.0820611  60.1383448  25.8330822
  13.2637215  58.8661146  25.8853674  67.5765657  31.3245130  64.7953939
  67.7008533  31.9821072  64.1110277  66.6662121  31.4339232  65.0701952
  11.2774801  41.4024448  11.4848948  11.5840685  42.1674871  11.9716644
  12.0739019  40.9100437  11.2861860   6.1720663  55.9092522  24.7727394
   5.4145515  56.4913130  24.7126722   6.0920489  55.5001593  25.6344056
  64.5055628  64.2909193  32.5446582  65.1616383  64.7899008  32.0580244
  63.7659597  64.8918343  32.6348090  16.7927313  51.6961050  27.4384522
  17.4230635  50.9760427  27.4179864  15.9416616  51.2669802  27.5265598
  79.2540455  21.5106368  30.9955716  79.1782761  21.7341566  30.0679255
  78.4011793  21.7365456  31.3668084  77.7245378  58.4467554  16.2672400
  78.4925270  58.0238056  16.6513491  77.2086191  57.7252340  15.9074306
  32.0331836  63.2291031  48.8837242  31.0867023  63.3709574  48.9004946
  32.3826957  63.8719797  49.5007992  53.0049610  66.9353676  40.0280190
  52.3158693  66.5775347  39.4682479  53.4837103  66.1671638  40.3392982
   4.0470493  46.2063646  29.4436216   4.0658292  46.4457512  28.5170293
   4.7485059  45.5620575  29.5388055  46.9795322  15.0203717  46.1512041
  46.4199448  14.6414721  46.8290901  46.6541529  14.6434319  45.3337193
  73.0984497  45.9951973  37.0848966  72.3939133  46.3873434  37.6007318
  73.7674999  45.7647133  37.7294731  59.7580576  31.2807822  15.6064677
  59.3710566  31.1981463  14.7349000  60.5229759  30.7057643  15.5843842
  64.7542810   2.4672189  60.5436945  64.7065639   3.0795425  61.2778711
  64.4009113   1.6483927  60.8913851  79.2347765  76.7390108  44.3016052
  79.1717005  76.0413837  44.9539614  79.2239332  77.5475740  44.8137951
  57.5107765   5.8668858  18.4976864  58.3885670   5.4852206  18.5049593
  57.4397421   6.3202083  19.3377376  73.4078550  16.5935516  31.8575144
  73.3566236  15.6546450  31.6784525  74.3459225  16.7831457  31.8753242
  65.0796986   9.8630220  30.3490877  65.5940437  10.1544440  31.1019206
  64.7808361  10.6727648  29.9352908  80.8688450  32.0971012  49.3806267
  80.2736378  32.2101545  50.1216936  81.7165470  31.9048119  49.7814512
  49.6990681  38.4274387   4.0765134  49.3901253  38.1206298   3.2240728
  48.8994122  38.6237025   4.5646346  80.2158928  51.1088943  30.0636744
  79.3659544  51.5246058  30.2086759  80.2509022  50.9584808  29.1190147
  12.1691430   4.3883985  38.4597611  12.6356983   5.0583142  38.9595318
  11.3236606   4.7877410  38.2550216  12.1111012  28.2791591  30.9186816
  12.5400805  29.1289139  30.8180428  11.7968380  28.2750916  31.8228149
  70.6499767  12.3855686  47.1514130  70.7378531  13.3045495  47.4043655
  69.7205305  12.1915650  47.2727919  28.5055947   2.8808460  22.5352240
  29.1120815   2.6212409  23.2287717  27.7899599   3.3199921  22.9948425
  29.3032908  48.4365320  44.0352345  29.8259401  48.0960989  44.7613001
  29.5033407  49.3723583  44.0142584  63.9434624  56.3001156  27.0120955
  64.4700003  56.0509062  26.2525630  64.3433809  55.8317518  27.7448511
  59.7658443  45.6679296  12.5138760  60.3794003  46.1945438  12.0015752
  59.4457865  46.2641048  13.1909049   4.3363467  42.2136497  40.4379082
   5.0949103  41.8907595  40.9242725   3.6190343  42.1926546  41.0713530
  31.8478918  33.7422180   7.3223555  32.1681666  34.4714737   6.7914695
  30.8965278  33.8477135   7.3251724  31.8012714  34.1457629  25.1506972
  31.9786310  34.9903321  24.7365999  32.6670170  33.7658453  25.3002882
  72.2868156  49.6530056  23.1381059  72.4094534  48.7087393  23.0403638
  71.4319372  49.7411442  23.5595846  26.8077707  39.9039650  23.9585924
  26.0421586  39.6373820  24.4675183  26.4574051  40.1208019  23.0946159
  11.4562130  36.5629148  39.5756364  10.6838143  37.1262622  39.6233130
  12.1917486  37.1495080  39.7520733  64.2296267   9.7940928   8.9664495
  63.3542395  10.1371348   9.1460371  64.8109341  10.5444467   9.0900850
  52.2056055  16.4394736  57.0383120  52.7159309  15.6297541  57.0506811
  52.8547239  17.1334743  57.1533728  78.6770296   7.1678692  13.4230709
  78.5618258   6.2387347  13.6222398  79.0162420   7.1807063  12.5280845
  18.8702798  19.3551433  17.1509409  18.2862473  19.1430593  16.4228213
  19.7273362  19.0325725  16.8723118   1.3721338  73.8264894  35.9290576
   1.8124630  74.5355606  36.3976312   1.9438837  73.6402607  35.1843095
  82.5566387  73.6318493   9.1720074  82.5450230  73.3405161   8.2602948
  82.0670986  72.9587555   9.6447915  74.4432831  56.5344429  19.4407439
  73.6197329  56.0786390  19.2668462  74.8657417  56.0135555  20.1237106
   2.5104636  23.1458449  24.0854669   3.1808776  23.5035253  24.6675682
   1.9995216  22.5576377  24.6415091  71.1578846  71.8061590  40.7551146
  70.7849073  71.0209513  41.1558294  72.0731831  71.8063021  41.0352135
  81.5550518  36.5427279   0.2327867  81.5922165  35.5898356   0.1500671
  80.7737446  36.7955422  -0.2590249  12.3639321  34.6729064  22.7327442
  11.4112699  34.5810819  22.7174211  12.5440729  35.1672792  23.5323548
  66.4841509  36.4205790  29.1272235  67.0098114  35.6997323  29.4740510
  66.9172430  37.2103262  29.4512010   2.2954240  20.7317758  22.4051356
   2.1646023  21.6527367  22.6308608   3.2432747  20.6063247  22.4506593
  12.6749790  32.1162057  22.7396679  12.7083623  33.0483341  22.5245953
  13.0598056  32.0582485  23.6141849  77.3386908  26.8651986  21.0379624
  77.0683670  25.9653544  20.8551097  78.2624435  26.8931222  20.7886982
  15.6807017  44.1961718  19.9478734  14.9751854  44.8091555  19.7411597
  16.3911664  44.7493744  20.2725816  15.4110730  47.3785639  32.4853897
  15.3277457  48.3102798  32.6883507  15.2544117  47.3238468  31.5426826
  69.0642738  50.2054644  40.9702063  69.4954443  50.6935453  41.6717100
  68.3527279  50.7775402  40.6827021  70.8457041  54.7445202   4.8522726
  70.9577608  54.3882513   3.9709389  70.2641106  55.4956436   4.7348240
  73.1281281   1.7019762   6.1699492  72.9441309   2.3336881   5.4747391
  74.0515041   1.8401890   6.3809264  56.8460369  30.0241828   6.4790946
  57.3317575  30.8226204   6.2722123  56.8403912  29.9883223   7.4356055
  77.0242262  24.9236917  25.6304526  76.4538050  24.6105742  24.9284506
  76.4252281  25.2953482  26.2779880   7.3736876   0.5373147  31.8425679
   7.1653211  -0.2123702  32.4000502   8.2817793   0.7504918  32.0574093
  21.5299726  45.2388668   5.0716043  21.6465449  46.1540508   4.8165005
  21.0844755  45.2809668   5.9177679  31.1157560  29.9739289  10.9757483
  31.7664528  29.4660592  11.4604068  30.8160615  29.3825221  10.2853477
  80.1623535  24.2866182  43.4419584  81.0753059  24.2078257  43.1652975
  80.1874256  24.1576481  44.3901014   4.4440666  34.1368365  28.5375857
   3.5515204  34.3942261  28.3066225   4.8481828  33.8987303  27.7031827
   8.7311321  28.5408926  45.7067871   8.3524638  27.6876926  45.4949093
   9.1794944  28.4033895  46.5412283  41.6247988   7.2450846  43.1939268
  42.3893690   7.8156108  43.2724762  40.8831739   7.8464377  43.1261349
  15.7462823   3.6037976  33.9148450  14.9801672   3.5617977  33.3425379
  15.4678738   3.1676430  34.7201324   7.0436347  26.7075753  11.6492558
   7.9188973  27.0664620  11.5031469   6.9818199  26.6062021  12.5990629
  15.0987887  50.3930664  25.1625443  15.1807773  51.3452196  25.2165413
  15.1893270  50.1973772  24.2299438  64.4539976  64.6826744  39.1518426
  64.5405388  64.1499329  39.9423647  64.7113609  64.0975714  38.4393477
  21.0519004  40.9602451  27.6719594  21.1869502  40.6333828  28.5614300
  21.7267752  41.6293526  27.5576258   0.6482086  66.7125702   2.2663519
   0.5635133  65.8020544   1.9834648  -0.0309184  66.8206644   2.9321846
  34.6874809  36.0482931  25.7277489  34.1924715  36.2477326  24.9331307
  34.9071193  36.9047689  26.0944080  51.4470530  10.3269839  16.4982843
  52.3133183  10.0547898  16.8011522  50.8360481   9.8306906  17.0428908
   7.9942030  68.5016537  27.6362610   7.6965100  68.3789206  28.5376763
   7.4803382  69.2417002  27.3129845  31.9074512  60.1168251  49.0573120
  31.8663573  61.0428286  48.8184452  32.8148556  59.9797106  49.3294382
  71.9650507  21.6892171  14.9743187  71.4689636  20.8957219  15.1755452
  72.7986145  21.5726113  15.4301846  24.8279619  54.1486311  22.1307969
  24.0761232  53.5911608  21.9303083  24.9866056  54.6365452  21.3227105
  39.7543311   1.1801156  53.0670977  39.6028304   0.9731635  52.1448994
  39.1465831   0.6137790  53.5426378  25.8425593  55.2938414  35.9332705
  25.4424882  55.4955053  36.7791486  25.1284337  54.9272013  35.4118919
  22.2448158  46.0996628  49.0076685  22.7497315  45.2864695  49.0114069
  21.3483334  45.8258486  49.2015123  16.5181398  52.4507999  33.4068179
  16.8929076  53.1107569  32.8235197  15.7203543  52.8564548  33.7462521
  72.7619123  56.1405945  23.5101461  72.7271414  55.1901484  23.6181927
  73.1111336  56.4634657  24.3408275  24.4866109  46.7653131  24.8177814
  25.2764702  46.4341879  25.2452278  24.1571045  47.4392128  25.4123545
  68.3032942  16.3157499  48.1689501  67.8804779  15.5153620  48.4801435
  67.5911140  16.9515777  48.0999565  81.5510273  50.0423050   3.1041116
  81.8682384  50.1800013   2.2115594  81.6592884  49.1032267   3.2545787
  38.8834882  40.4647207  28.4181499  38.4145594  41.2420177  28.7217021
  39.7878528  40.6060219  28.6981320  17.8855240   6.5081930   7.6246870
  17.8330648   6.7564934   6.7017424  17.0693362   6.0372216   7.7927750
  73.4608221  60.0702906   7.5309891  73.9180326  59.7053862   8.2886404
  74.1559601  60.2634478   6.9019371  17.9953945  32.6435542  48.2637691
  17.7832520  33.2293534  47.5370884  18.9004493  32.8591084  48.4888077
  14.2165351  37.1849537   5.2925414  14.3703699  37.7873492   6.0203367
  13.4095573  36.7268038   5.5273169  74.5077133  41.3432980  51.9940758
  74.5562744  42.2357941  51.6515589  75.3585339  41.1990738  52.4082422
  23.6424160  21.6871333   3.2547495  24.5141983  22.0715642   3.1628761
  23.0419040  22.4198651   3.1179178  49.1648149  73.4200096  58.0727959
  49.9969482  72.9908133  58.2717228  48.5012484  72.7587318  58.2693291
   5.9635097  43.2624006  25.8963513   5.1888728  42.9091549  26.3338280
   5.9762436  42.8275585  25.0437212  23.5380816  38.4914279  40.5094290
  24.2557502  37.9527211  40.8425665  22.7543378  38.1275439  40.9212160
  22.7048683  54.5917892  53.7157869  22.4716640  54.1721964  52.8876638
  23.1756020  53.9154148  54.2027760  35.3158760   9.0725011  39.3382597
  36.0902119   9.0274286  38.7773633  34.8922324   8.2209367  39.2305756
  82.2120190  61.4109468  19.1197109  82.6152802  61.9904995  19.7660267
  82.4829960  60.5318308  19.3842185  21.7115116  64.9832201  53.7585878
  22.3657942  65.3803921  54.3333912  22.2021055  64.7289896  52.9769754
  33.0784845   9.9229330   4.1610473  33.5641956  10.5726838   4.6691233
  32.8137112   9.2651892   4.8040861  12.4118090  56.7684889  13.1535649
  11.9875109  55.9110546  13.1217551  12.5084484  56.9533873  14.0877521
   0.1907295   7.7320659  11.2071884   0.5868202   8.5456198  10.8949792
   0.6457444   7.5437254  12.0279932  30.0533271  54.2382383  21.0322475
  29.1275263  54.0076685  20.9550261  30.3492045  54.3472195  20.1284719
  25.4758000  36.3120937  25.1947618  25.3381824  35.6258655  24.5417833
  24.5952177  36.5368605  25.4952359  69.5469952  32.1673536  67.0594454
  69.1299725  32.3256421  66.2125301  69.0197849  32.6667118  67.6830816
  67.8153992  13.0522168  46.7143345  67.5433207  13.3411062  47.5853968
  67.3331404  13.6191607  46.1124754  16.5831101  52.3830700  22.8849363
  16.3221371  52.7042675  23.7480426  15.8755410  52.6594257  22.3025250
   7.6125646  15.1718068   1.2491907   8.5087138  14.8810935   1.4184055
   7.6011074  16.0874164   1.5280473  20.6675410  57.7018547  65.1222181
  21.1448693  57.2369671  64.4350004  20.8730459  58.6249304  64.9741220
  32.1604586  19.4926906   2.0204964  32.5137401  20.0880075   2.6815724
  31.9200349  20.0619841   1.2895167   3.8233030  55.0902128  21.0677147
   4.7100931  55.4500866  21.0857916   3.6846131  54.7505045  21.9517946
  10.0139892  50.7464361  25.3489828   9.2785239  50.6544304  24.7432947
  10.6925046  51.1863136  24.8367786  76.7050982  43.3380604  66.7984581
  77.5740051  43.0608511  67.0889473  76.1014986  42.7533436  67.2567272
  19.8569214  69.0004253  49.3675852  20.7568765  68.6889553  49.2711544
  19.4068313  68.2930374  49.8293734  25.6362891  49.0805626  19.7399640
  24.8805976  49.5367956  20.1101208  26.3928628  49.4932985  20.1564741
  22.4599075  55.7741356  39.9826694  22.3276186  55.0762939  40.6243467
  21.5975189  55.9031010  39.5878458  43.2406807  59.8194742  12.4942172
  43.0851030  60.5367422  11.8797624  44.1915274  59.7094393  12.4981260
  14.7419679  49.1288567  41.2401009  14.8258662  48.9110899  40.3117847
  14.3531179  50.0034904  41.2467480  52.7815151  33.8036036  17.1355271
  52.8143692  33.6477613  18.0793846  53.6111355  34.2370462  16.9353175
   2.6491076  23.3589768  55.6695509   3.1088281  24.0745735  55.2304459
   3.1923452  22.5883365  55.5045080  13.3563304  65.6396532  62.5513506
  13.7536418  66.2623739  61.9425821  12.7949584  66.1765003  63.1107187
  21.0848999  42.4507284  18.4480667  20.2752161  42.3720121  17.9436386
  21.7005253  42.8724527  17.8485787  20.5543375  75.7973194  10.0836062
  21.0454631  76.0148382  10.8758891  19.6651459  76.1039305  10.2612567
  36.6484308  14.8697841  58.8471460  36.6893125  15.2821314  59.7100067
  36.7910600  15.5884898  58.2312298  33.0478144  48.3889246  38.1296277
  32.2820759  47.9816437  37.7246594  33.3387947  47.7539539  38.7841344
  46.8699360  38.6043501  50.3020096  46.3180161  39.1539931  50.8583450
  46.5667486  37.7122140  50.4705429  76.7490005  49.6514225  59.6705246
  76.9583750  48.8627672  59.1701031  76.6273880  49.3405914  60.5676413
   6.6589445  43.2457447   5.9297884   7.5301874  43.5983944   6.1109155
   6.2756175  43.8628149   5.3064775  23.5718369  36.7300034  33.7924004
  24.1028166  36.0491657  33.3791780  22.6702452  36.4998198  33.5679460
  59.3363571  45.2952099   9.3312961  60.0748968  44.9144506   8.8560981
  59.4572163  45.0038576  10.2350318  32.7138662  29.9434924  47.3990107
  32.5826049  29.4944811  48.2341099  32.8550434  29.2382026  46.7674494
  11.7430079  64.3965054  24.0477848  12.6670289  64.6456718  24.0660310
  11.3877261  64.8499203  23.2833099  50.4536104  50.8667040   3.1050563
  51.0505009  51.4964104   3.5093197  49.5821857  51.2347651   3.2512859
  48.9003325  71.2146759  56.0162830  49.6071053  71.7546749  56.3699913
  49.2017412  70.3146219  56.1399508  33.2308722  67.9891539  34.2319107
  33.7369299  67.5705624  33.5355520  32.5237131  68.4436083  33.7740541
  23.4271240  52.9634047  47.0475864  22.9249239  52.2694302  46.6204643
  23.9793205  53.3218288  46.3527203  72.1187592  22.8239870  58.0209541
  71.7172623  23.1377625  58.8312483  72.3802662  23.6205792  57.5591278
   4.5103955  23.7727809   2.8922415   3.7280917  23.8196516   3.4418195
   4.3493497  24.4051075   2.1919128  40.4153919  64.9015427  19.3060911
  40.3284407  63.9708519  19.5122135  41.0437012  65.2314425  19.9484563
  54.0759134   3.6232680  31.9490838  54.6514225   2.8709131  32.0868611
  54.1286945   3.7962320  31.0091209  29.0377736  58.5562325  27.2732353
  29.9846935  58.5942364  27.1385860  28.9334798  58.4836960  28.2219672
  48.0784798  63.3453321  30.7939219  47.4451971  63.5111094  31.4922786
  48.8858795  63.1135130  31.2528300  25.3976846   8.1177545  28.4058285
  25.6095505   8.8276035  29.0120101  24.5266032   7.8255361  28.6742663
   1.6608776  20.8034325  41.1487389   0.8348324  21.1663032  40.8290434
   2.1571222  21.5651798  41.4482641  67.0268679   3.3329859  56.6060257
  66.4438248   2.7718493  56.0947418  67.9077339   3.0597210  56.3498402
  17.9280210  63.4296799   3.7572742  17.8706837  62.7596188   3.0761278
  17.0180929  63.6085796   3.9944640  25.3017855  29.7356319  20.6245208
  26.1097908  29.4363523  20.2076411  25.4622674  30.6581187  20.8232594
  22.3251319  47.8191805  32.8012657  22.2688818  48.6786604  33.2188320
  21.7515755  47.2602081  33.3254957  28.7932158  36.0242915  34.6347404
  29.5245981  35.5491877  35.0291848  29.2080164  36.6956043  34.0929747
  27.0502567  46.7819929   8.0596000  27.4417186  46.4166594   8.8530248
  27.7760124  47.2185469   7.6135850   3.4985709  63.9673090   1.7603470
   4.0554172  64.7456551   1.7784764   3.3357993  63.8108778   0.8301501
   6.0546446  54.8968983   9.1174668   5.6059802  54.0573215   9.2176497
   6.8153888  54.8323250   9.6948141  69.8741484  74.2985964  37.5294971
  69.2520857  73.5885096  37.3712468  69.6838999  74.9405718  36.8454647
  36.4918494   1.3462637  43.4612751  37.2642565   1.2095449  42.9127073
  36.8405414   1.4335291  44.3484211  11.0391676  59.1356325  39.4194126
  11.3097215  59.8702002  39.9702668  10.1107109  59.0158129  39.6190166
   1.9301182  46.7885494  55.5244875   1.5824270  46.8931007  56.4101553
   1.5634075  45.9585953  55.2196455  24.0993595   7.4690795   3.0002412
  23.8285947   7.1275866   2.1480089  24.6324372   6.7705154   3.3798042
  10.9380865  35.4965401  30.1779842  11.0206890  36.1989260  30.8230138
  10.2959871  34.8968244  30.5578279  77.5913572  47.4291658  38.1038547
  78.5080624  47.2767210  37.8744245  77.1499538  47.5450563  37.2624469
  43.0209303  70.3603172  65.4043865  43.1670094  70.9221792  64.6433306
  43.4080219  69.5198441  65.1594400  42.8628492  28.0344296   8.3848804
  42.6125050  27.7433825   7.5080371  43.7121582  28.4587526   8.2630181
  12.9779315  50.1033449  32.8039265  13.9102888  50.2763700  32.9343247
  12.8122985  50.3554726  31.8955040   3.3901677  74.4229984  29.6476483
   2.5728786  74.7483206  30.0250506   3.6729422  75.1180649  29.0533829
  34.0928268  66.4224577  24.8147416  33.6920571  67.2724676  24.9966621
  34.6721029  66.5851879  24.0703034  33.8337285   0.1563839  38.3857036
  34.0965117  -0.3613135  37.6246738  34.2292530   1.0156158  38.2390285
   3.6789373  36.8812013  40.6787252   3.1985372  37.0854878  41.4810419
   4.2624193  37.6293230  40.5518579  17.7411735  52.3008728  12.2449017
  16.8125141  52.5164509  12.1591735  17.9900479  51.9667912  11.3831103
  31.2967014  55.9107161  10.7594621  30.7690120  55.5172682  11.4544249
  31.4378977  55.1997662  10.1342857  55.1972723  75.8696842  10.3587031
  55.4460239  76.6609335  10.8364928  55.1028109  76.1578608   9.4508123
  49.3083525   3.3196056  43.2530880  49.1931486   2.7720690  44.0297270
  49.4924831   2.6991954  42.5478077  25.5825830  65.3294277  18.7265778
  25.1704335  64.5111561  18.4494638  24.8623466  65.9585810  18.7673044
  28.7233472  67.3159933   8.2982987  29.4029379  67.4447489   8.9599729
  28.0706453  66.7643976   8.7295216  11.5359068  58.0107403  30.0155377
  11.5478063  57.1475983  29.6019316  12.0295572  58.5703993  29.4161034
   5.8291620  19.9489188  46.5567350   5.5735081  20.6774020  45.9908819
   6.3762200  20.3505278  47.2317696  46.9380665   0.9954901  22.0001769
  46.1827183   1.0398035  22.5864506  47.2858238   0.1123236  22.1239281
  17.6892090  44.8793554  27.7396417  16.9074488  44.8966980  27.1875715
  17.5814259  45.6243181  28.3309460  33.6122179  76.9204235  41.0474157
  33.8940954  77.8177452  40.8696842  32.8905511  77.0147705  41.6691303
  51.5004492  25.2355671  46.6600084  51.4799881  26.1580062  46.9147968
  50.5816507  25.0042677  46.5238190   4.3176958  39.2337084  29.0049815
   4.6635431  38.3940196  28.7024188   4.0952265  39.0840149  29.9238563
  49.8426580   0.1602340  18.8089406  49.4087267   0.7613257  19.4144356
  50.5665588   0.6691123  18.4439182  31.2972403  59.8307514  29.9502659
  31.5505123  60.1940060  30.7988691  30.7618642  60.5142832  29.5472956
  36.1363983  73.7684345  65.7108021  36.8114042  74.3571138  66.0485220
  36.6241646  73.0710506  65.2726603  77.4600124  33.7566948  37.4544907
  78.2416964  33.4405541  37.9075503  76.7417526  33.5740995  38.0602908
  28.3791637   7.0689023  11.1210775  28.2563019   6.3600588  10.4896677
  27.7367115   7.7309954  10.8658898   1.6440032  54.7812319  55.5196333
   1.1607359  53.9549971  55.5153656   1.4920790  55.1430607  56.3926935
  49.9669170  36.8555593  16.9203043  49.8251915  35.9503698  16.6432166
  49.1093731  37.2709656  16.8292761  54.3549538  68.0944204  67.0625257
  54.7569084  68.9629412  67.0441294  53.4380341  68.2594585  67.2821856
  35.9040761  66.1849165  42.5236702  35.1367497  65.6142330  42.4816561
  35.9754157  66.5554857  41.6440010  23.3721709  26.9009852   7.6243353
  22.7880239  27.4333262   8.1643504  24.2503047  27.2146940   7.8404391
  35.8771920  39.6814871  11.0868371  35.0583816  39.4812560  10.6333077
  35.7462645  39.3498349  11.9751465  39.1325378  61.2166834  41.2843275
  39.4083476  62.0533371  41.6587257  38.8327074  60.7052183  42.0358181
  67.5949240   0.1957170  40.6150913  67.5771427   0.7839635  39.8601866
  66.9264126   0.5433427  41.2054110  68.4396887   0.4155409   4.5987198
  67.6644516   0.9594364   4.7380638  68.0971146  -0.4751325   4.5240539
   8.8166201  28.5067344   7.4471325   8.5273004  27.8816319   8.1117928
   9.2042577  29.2253113   7.9467475  18.7074316  48.1962585  19.6932745
  18.8327849  47.7059412  18.8808084  17.9728198  48.7815619  19.5088828
  14.4299412  30.7706070  19.8415697  13.5905695  30.4434538  19.5180595
  15.0850153  30.3032184  19.3232477  -0.0831256  71.9353104  37.4682999
   0.3864446  71.1855125  37.8337359   0.5097451  72.2892761  36.8053913
   5.4323858  13.8189089  31.7037249   4.4892004  13.8124216  31.8667936
   5.8216816  13.5607898  32.5392222  67.9435539  51.3298178  60.8858013
  68.1574345  52.1166372  61.3872004  67.2506618  51.6083670  60.2870178
  62.7488041  43.7334251  43.1251669  63.1319857  44.5392179  43.4717226
  62.1011829  43.4748650  43.7808895  10.1561046  42.6201105  44.4776964
   9.4905198  43.1922197  44.0957022  10.0671732  42.7466345  45.4223204
  50.8558559  57.5333166  55.4619789  51.7430592  57.5703907  55.8193636
  50.6926250  56.6005087  55.3224754  36.3255119  77.6657200  15.1906633
  35.8131313  77.3876572  14.4314647  37.0607829  77.0535803  15.2206039
  15.7271767  35.8296156  27.0737267  14.9503779  35.7832289  27.6310992
  15.9765267  36.7536736  27.0868206  26.2202930  62.2804022  13.9509690
  27.1167874  62.5025034  14.2023706  25.8785367  61.7850733  14.6953380
  18.8061035  43.9717531  54.4876575  19.3250465  43.4829235  55.1263857
  18.9834547  43.5382605  53.6528730   0.1814940  33.9909077  17.0866692
   0.3876217  33.6919546  17.9723167   0.3255489  33.2221937  16.5347993
  56.3242006   8.6474419  57.4075937  56.8057919   7.8835410  57.0901775
  55.6252098   8.7735194  56.7659140  13.6756516  50.9758997  48.3652687
  13.5334384  51.5834761  49.0911198  14.2815757  51.4351416  47.7837276
  19.0676475  70.2524090  24.2663956  18.2724047  70.7829523  24.2179942
  18.9054143  69.5225811  23.6686754  60.7724905  64.6587753  38.5209084
  61.1615038  64.8666143  39.3704391  61.2993574  65.1490593  37.8898287
   4.0603679  57.9275417  24.4184709   4.4684941  58.2897806  25.2048850
   3.3132130  58.5017252  24.2502189   9.6894413  57.7249050  14.6805525
   8.8869613  57.2031498  14.6749389   9.8464298  57.9327631  13.7594771
  73.4757090  44.3309689  32.3873186  73.5996246  44.7527742  31.5370488
  73.4390020  43.3955669  32.1875596  29.1533709  66.1097574  35.7164073
  29.9926376  66.4460039  35.4020858  29.3134379  65.8852768  36.6330409
   3.3875370  53.1818247  47.4445200   3.7558717  53.5220146  46.6291523
   3.5518587  53.8714600  48.0876589   5.7766777  71.4454842  21.5340543
   5.2892268  72.2312737  21.7813635   5.1175940  70.8643627  21.1544037
  27.0868826  34.7066689   8.6187595  26.4709735  35.0325608   9.2750233
  26.9998455  35.3155828   7.8853554  54.2327595  32.9467368  65.8099842
  53.3075809  32.9562807  65.5646515  54.3011332  33.5940337  66.5118122
  75.3787136   3.7941360  63.5845566  75.9926844   3.8150439  62.8505039
  75.9133530   3.5401782  64.3368196  79.7436905  25.3111792  15.4695988
  80.6538105  25.4776573  15.7149494  79.8017073  24.8505807  14.6325111
  15.6709957  62.2740984  24.1006804  16.5829003  62.0429039  23.9240170
  15.5579913  62.1052504  25.0360680  49.7883749  54.2034149  31.3725948
  50.6759596  54.4901609  31.1576390  49.5647526  54.6905708  32.1656275
  66.2614012  26.2907720  20.3801322  67.1347141  25.9092116  20.4693961
  66.3429022  27.1665215  20.7578254  51.7369461  32.4947381  64.8962879
  51.0393143  32.9429865  64.4181490  51.4052439  31.6064048  65.0269461
  72.7968931   7.1352935  33.9086843  73.2319164   7.9076320  34.2699075
  72.5448656   6.6215372  34.6759963  32.0823669  49.5629501  26.5945506
  31.5572977  50.0907326  27.1961951  31.8406343  49.8800564  25.7243538
  23.5644174  64.7759342  61.6413403  23.9579868  65.0283480  60.8061028
  24.1776490  64.1419744  62.0131922  27.4256730  13.9216423  61.4926004
  27.6215506  13.9469814  60.5560017  26.4989376  14.1542614  61.5498590
  24.3990302  64.5581436  26.3762474  25.2065778  64.9222755  26.7388868
  23.8152862  65.3115368  26.2874794  30.6298566  32.9348946  29.5654893
  31.3055277  32.3196149  29.2806554  30.5303502  33.5388970  28.8296151
  10.9012520  53.9191484  30.3384447  10.3284371  53.9956474  31.1015058
  11.7349339  53.6119890  30.6946182  79.1841269  62.8849173  36.6918063
  78.3539486  62.5423002  36.3606763  79.8080635  62.1714306  36.5581274
  66.5385532  65.1476097  21.0659027  67.3045492  65.5123854  21.5090895
  66.8963099  64.4828224  20.4774332  14.6895111  28.0535150  57.0533085
  13.8603306  27.7063441  56.7244291  14.4410861  28.6030769  57.7966118
  13.1200004  64.1459084  33.4015608  13.1051230  64.5235872  34.2809749
  13.1899047  63.2024479  33.5472298  34.5505977  50.2510595  23.8602781
  33.6057353  50.4023504  23.8362551  34.7400308  49.7891092  23.0436087
  48.5836124  74.6716976  29.5852828  48.1032038  74.6662712  28.7573862
  47.9739761  74.2926455  30.2184439  73.3284855  35.1099610  59.7951841
  72.8352547  34.5245028  59.2205620  73.1658554  35.9847999  59.4424200
  81.5360546   5.8315331  31.5871644  81.8806171   5.3392208  30.8420897
  81.0705185   5.1792109  32.1106029  23.6338353  72.3047352  24.9965715
  23.1618714  72.7305412  24.2809105  24.0004230  73.0278683  25.5054164
   8.7611860  26.6228724   1.0344841   8.8688278  27.2601151   0.3283914
   8.9947194  25.7837701   0.6374925  42.5486088  39.0204144   4.1235152
  42.4931288  39.3181372   3.2154870  43.3826208  38.5531616   4.1718358
  12.9820430  36.6559911  45.0362396  13.3539128  37.3124766  45.6252813
  13.3634496  35.8282328  45.3287745  63.7131882  15.7640707  18.4476137
  63.9233875  15.5534112  19.3573785  63.6570883  16.7194593  18.4298003
  11.5259278  21.4247918  45.4840326  12.4036312  21.5072083  45.8569574
  11.0470057  20.8876228  46.1151552  19.5562768  46.6065645   2.0263541
  19.3559158  47.3001623   2.6548532  18.7018979  46.2513781   1.7811860
  80.8810043  47.3710966  12.0486784  80.1082706  47.2749281  11.4920235
  81.6209412  47.3005295  11.4455628  28.9006734  51.4018393  14.4785607
  29.0301633  52.1429539  13.8867760  28.0157518  51.5221786  14.8230398
  68.0915880  66.8157530  13.5478520  68.6674118  66.8831587  14.3095040
  67.7135944  65.9385633  13.6102462  44.7068024  70.4336262  38.6052561
  45.3848553  69.8804379  38.2173681  44.4302368  69.9593019  39.3893194
  80.0668240  56.6532230  16.9912875  80.5730152  56.0981750  17.5845194
  80.6145668  56.7309189  16.2101483  20.0152755  54.2570734  27.0142579
  19.3566442  54.5923901  26.4059806  20.3794336  55.0395536  27.4282002
  56.9551849  10.0143886  46.3767481  56.3898039   9.8875177  45.6148529
  57.5557852  10.7125103  46.1157179  18.3522022  53.7379551  20.5092525
  18.3066487  53.3361578  19.6416616  17.5538886  54.2622805  20.5725932
  44.9921942  73.5595846  36.6019917  45.8906364  73.3209467  36.8302131
  44.5590305  73.6953878  37.4446988  48.9632225  12.5714064  25.1290822
  48.3762217  12.5580633  24.3731165  49.1530561  13.4991658  25.2685738
  11.7791927  51.5117931   0.5416515  12.1639490  52.3856640   0.6090400
  12.5164366  50.9416819   0.3233031  23.0633593  22.5470328  42.2401762
  23.4338546  23.2597923  41.7196560  22.2755575  22.2864223  41.7630148
  59.2138338  44.9098063  63.8888645  60.1490164  45.0567102  64.0306044
  58.8975620  45.7293558  63.5086823   3.9753968  51.5404224  11.5654778
   3.1359938  51.9989967  11.5288031   4.1404495  51.4173651  12.5002754
  57.5102806  48.2132101  42.7524662  58.2753849  48.7062740  42.4562645
  57.5054789  48.3266640  43.7029076  75.4619408  70.0780201  39.1213250
  75.7314777  69.2685080  39.5552301  74.6133995  70.2878094  39.5114470
  18.1872630  50.3676701  36.5750837  18.1949437  51.3138819  36.7194867
  18.9241362  50.0406408  37.0911288  75.5673599  24.6194482   9.4609445
  74.6913147  24.6162939   9.0752429  75.6463814  25.4817891   9.8688149
  33.9175439  42.4632931   0.0942768  34.5328116  41.8706560   0.5260812
  34.1382766  43.3292294   0.4373000   9.1197985  49.1898632  27.6465321
   9.5167953  49.7698355  26.9967198   8.5207874  49.7533607  28.1363177
  53.8304996  66.9730902  24.8161983  54.4593811  66.4522839  25.3156924
  54.3224573  67.7486086  24.5464230   3.3863336  16.1240959   6.2473863
   4.0731138  16.6523802   6.6541779   3.5725495  16.1701524   5.3096050
  23.0399704  70.4460049  34.8883724  22.2276735  69.9918842  35.1123953
  22.7675343  71.3431883  34.6958351  73.2473755  29.9386144  13.8761115
  73.2502079  29.3486881  13.1223130  72.4547815  30.4639101  13.7661767
  81.6670513  74.9608850  42.8593397  82.2520638  75.1146603  42.1174860
  80.9106731  75.5219889  42.6882219  68.6585569  16.9621491  65.3117466
  68.6144447  16.0267985  65.1132393  69.1474771  17.3394120  64.5804071
  21.9968915  39.2401409  18.0683875  22.9538465  39.2522740  18.0504251
  21.7428422  40.1495695  17.9114604   3.7977862  73.2478285  63.5534000
   3.4934694  72.6418877  62.8777838   3.4643358  74.1015244  63.2772684
  70.9528255  66.2903786  66.4528418  71.8237543  66.4729118  66.8055391
  70.3515673  66.5670919  67.1443272  49.6291971  58.6920691  57.5972128
  50.4425240  59.1823864  57.7169085  49.7827435  58.1604576  56.8161631
  68.1684637   8.8012308  31.3277745  67.9769325   9.7069359  31.5711808
  68.4834623   8.3973914  32.1364284  44.0865803  24.4641352  61.9889259
  43.4627295  23.7614489  61.8064928  44.7063255  24.0792966  62.6086378
  17.3647392  55.7435560   6.7958790  18.1920052  56.1361980   7.0746177
  17.2815251  54.9546862   7.3315936  74.4066811  19.0201283  28.5452271
  74.9520206  19.7358513  28.2187629  74.8718548  18.6974239  29.3170452
   9.4806737  65.1631546  64.2615795   9.6483475  64.5545769  63.5420275
   9.6391356  64.6481419  65.0527048  80.2709103  75.3118229   9.2754036
  81.0455608  74.7631931   9.3985283  80.4078484  75.7325602   8.4266025
  26.9929218  29.5436430  10.7265902  26.8005490  30.4800916  10.7744169
  27.2345543  29.3027878  11.6209245  72.4721909  47.5327635   2.2548862
  72.3394251  47.5045776   1.3073571  72.8743792  48.3864641   2.4150971
  40.0831270  43.7551737  19.8927557  39.8934937  42.8196621  19.8214412
  39.2287898  44.1794729  19.8133326  20.9846282  70.7483864  14.2679060
  20.3907633  70.0393295  14.0213287  21.3663578  71.0399294  13.4399474
  35.2262473  70.2761269  40.1883936  35.7649899  70.5986834  39.4659352
  35.3865170  70.8944416  40.9012985  24.7080851  62.3185110  24.2996740
  24.3202949  61.5384102  24.6962762  24.6917295  62.9747152  24.9963498
  13.1518590  36.8234921  52.7933550  12.7353680  37.6675606  52.9674721
  14.0482414  36.9283915  53.1123018  38.6483884  73.7898731  11.0804665
  39.1123939  73.0328083  10.7229936  38.9771008  74.5330286  10.5746043
  47.2978687  56.7064524   3.6982232  46.6573906  57.2006273   3.1865472
  46.7694235  56.1476231   4.2680371  52.6948500  17.5081432  61.0107327
  53.4440374  17.1935046  60.5048180  52.5548840  16.8341184  61.6758108
  25.9444571  48.6466551  14.0244353  25.4399347  48.0591822  14.5870757
  25.8175898  48.3000231  13.1412685  19.0094864  49.7581482  50.2154732
  19.6760309  49.0881777  50.3674173  19.4014466  50.3432798  49.5672274
  22.7953720  68.6051464  54.9353266  22.5367618  69.2467737  54.2737627
  22.0247841  68.0474758  55.0422335  74.0495443  54.1697168  16.6739762
  74.0613651  53.2126427  16.6842496  73.2626295  54.4048214  17.1656239
  71.1539364  38.1761885   7.3868376  70.2771664  38.2297850   7.7671397
  71.7123985  38.6474919   8.0050826  22.8215814  73.5596132  48.7467051
  22.8365803  73.4326506  49.6953297  21.9844580  73.1880283  48.4685326
  73.6513615   6.7307800  19.7382367  74.4355583   7.2565651  19.8957705
  73.2028484   7.1786106  19.0209401  18.7534308  73.5359669  29.2768383
  18.6611688  74.4776869  29.4213414  17.8550482  73.2185602  29.1852188
  27.7255726  11.5637493  66.9830704  27.9029155  12.4431765  67.3168230
  27.0508552  11.6921413  66.3163614  66.6382504  39.7951579  64.2697477
  67.3849106  39.4076157  64.7264099  66.1872101  40.3080082  64.9404001
  44.4788980  61.1961651  54.8754692  44.3987370  61.4667559  55.7901192
  45.4124641  61.0198927  54.7587776   5.2179354  71.8082428   8.5791010
   5.7133591  72.3515224   7.9662126   4.5078164  72.3745680   8.8811558
  36.9477797  37.4379611  61.9102859  36.4991736  37.3472929  62.7509785
  37.5649357  36.7066216  61.8880272  19.4198096  47.2547102  43.3590984
  18.8647282  47.4232674  42.5977135  18.8262522  47.3193884  44.1072559
  37.6047659  68.3717728  34.5381284  37.1659350  69.1613054  34.8548269
  37.4385214  68.3671093  33.5954881  11.1508691  68.7542295  44.7871065
  11.8714404  68.2079744  45.1011372  11.2419415  68.7463045  43.8342810
  65.9726238  19.0281320  37.8609061  65.7225800  18.3172989  37.2706294
  66.5147400  18.6063600  38.5275745  32.9002857  60.7792473  24.3092585
  32.3597050  61.5019703  24.6281171  32.6232052  60.6552887  23.4014630
  25.5803490  27.8436947  22.8128767  25.1963687  28.4440660  22.1738577
  26.3413262  27.4729180  22.3660326  12.4721706  56.1400032  35.8838034
  12.0169187  55.4786634  36.4049649  12.1054041  56.9729042  36.1804438
  28.3346009   6.4807755  58.9176083  27.6488566   7.1294481  58.7588310
  28.5682058   6.5996408  59.8382235  45.0669336  23.2012105  48.8317585
  44.2058325  23.3948851  48.4613180  45.0516510  23.6072302  49.6984482
  27.0226002  71.5978193  51.3318729  27.5078583  70.8351421  51.6466331
  26.1160350  71.2966394  51.2713528  29.4801903  30.9955955  16.5057671
  28.8177395  30.3132963  16.3968551  29.4005656  31.2627459  17.4214745
  19.0464258  41.2816572  26.0811639  19.7594464  41.0602093  26.6801596
  19.4421923  41.8818569  25.4492116  80.3927231  55.7948732  40.5142117
  80.2347755  56.7290068  40.6508875  80.4910946  55.4369879  41.3965225
  59.4947004  75.7481337  42.8544235  59.3731976  75.7687664  41.9051886
  59.0954638  74.9226713  43.1291056  28.4047794  42.0406818   6.7166716
  27.9517984  42.6350546   7.3148024  27.8468537  42.0119286   5.9394163
  73.9256954  62.9729700   3.6178771  73.7103081  63.4274292   4.4323143
  74.1061163  63.6747932   2.9924771  50.5165148  21.3311911  22.0745516
  50.0477362  20.7464862  22.6700330  49.9797344  22.1231508  22.0446086
  64.4050407  57.8737450  38.2489228  64.6849012  58.6079407  37.7022362
  64.8882341  57.1219635  37.9060125  26.3223624  60.6646776  53.9009190
  26.1746621  59.7559547  54.1629171  26.5250301  60.6146908  52.9667568
  55.0044203   9.6404433  22.8230786  54.2379141  10.2050650  22.9225683
  54.6547222   8.7508219  22.8732276   9.2301232  42.2076368  31.5418410
   9.5794964  41.6365623  30.8577013   8.3064651  41.9652271  31.6076064
  12.7193987  61.9504166  35.8678150  12.9102838  62.8865290  35.9268594
  11.8089163  61.9096231  35.5752563   5.4904979  58.7495995  35.4377723
   5.3736031  59.2582560  34.6353793   4.6486869  58.8163853  35.8884668
  23.5380125  72.2096920  30.5017471  22.8072667  72.3586559  29.9017072
  23.1340480  72.1828318  31.3691139  62.9478598  65.9591055  56.7438555
  63.0335188  65.1147127  57.1864605  63.4124327  66.5748453  57.3106575
  40.3997278  51.7034483  49.3042088  39.8825979  51.1558533  49.8949289
  40.4869747  51.1802053  48.5074425   3.8643378  69.3289518  51.5487480
   4.7830638  69.4953632  51.7596579   3.6624497  69.9513388  50.8501005
   9.0280014  74.5034266  22.4250603   8.1772399  74.9409294  22.3929954
   8.8839006  73.6667824  21.9829178   3.6105007  14.4554389   3.3326569
   4.1545588  15.2141178   3.5439366   4.2368323  13.7560165   3.1462485
  41.5909624  50.1142693  36.4766359  40.6934881  50.2136755  36.1590028
  41.7860699  50.9464216  36.9075537  37.1933007  13.5859466  19.5860231
  37.3371983  13.7243938  20.5221629  36.2498808  13.6982930  19.4695258
  51.7081022  71.8759775  56.3077021  52.4997187  72.3712301  56.5181828
  52.0264959  71.1005211  55.8456135  42.9746962  54.0129328  22.4904728
  42.0273495  54.1355038  22.4292827  43.1742811  53.3534098  21.8260717
  74.5181465  76.8699312  12.6031780  73.7415409  76.4602423  12.9843223
  74.2851877  77.7947092  12.5210357   0.2417765  45.3768301  65.8995295
   0.8392149  45.0496721  65.2270222  -0.5443719  44.8392487  65.8035564
  15.5325723  53.5218096  38.5751224  15.2997887  54.2726612  39.1212559
  15.9749305  52.9189539  39.1727161   5.2131999   7.7760893  28.4689498
   5.7815665   8.3630919  28.9675689   4.4339451   7.6756424  29.0156722
  46.0403347   5.2328801  22.3022723  46.5185213   4.7701019  21.6142273
  45.5312729   4.5508748  22.7403998  14.5067811  39.6574855  20.9668994
  14.6471381  39.1317010  21.7543507  14.9375129  40.4911947  21.1556554
  42.4709940  71.6063547   8.2670861  43.0038261  72.3806810   8.0861545
  41.5692091  71.9011688   8.1402040  12.8439558   1.3148777  57.9440069
  12.0731831   0.8440451  57.6270533  12.6471543   2.2365740  57.7767420
  22.1300793  36.1293602  27.6226163  22.6780367  36.6842866  27.0676088
  21.2381959  36.2872791  27.3130345  36.1856031  68.4393358  44.0904427
  36.3579297  67.5798273  43.7060308  35.2322364  68.5229969  44.0723944
  14.5003593  42.3435402  37.7159953  13.5962880  42.6571941  37.7384853
  14.4354343  41.4495516  37.3801422  27.8196192  56.4395761  26.1292934
  28.4606767  55.7424784  25.9902477  28.3404160  57.1906614  26.4136791
  42.6138258  10.7708251  22.6450706  42.4121475  10.7743180  23.5807753
  42.0327377  10.1050067  22.2772956  82.3717499  70.8604097  25.6643057
  81.8309689  70.1733923  26.0539103  82.8387165  70.4228640  24.9524570
  20.3780150  22.7866817  37.1796584  20.8373547  22.0204949  36.8358588
  20.0000024  23.2061076  36.4067292  12.2238350  50.8952427  30.4001808
  12.1009099  50.8174849  29.4540977  12.6617563  51.7384386  30.5163050
  25.6813025  66.7126369  45.2470016  25.3409505  67.2525358  45.9603786
  26.0633349  67.3399115  44.6331596  65.8916521  55.8974266  37.0305276
  66.6729546  56.0642719  36.5033078  65.6940937  54.9730015  36.8800545
  71.6889954   1.5710741  57.4314070  72.4250984   1.2289263  57.9386759
  71.3951635   0.8278864  56.9045591  62.4844837  70.3631783  25.2462745
  62.2987461  71.2440777  24.9210787  63.3481598  70.1537609  24.8906970
   6.4857250  51.4090586  30.8007574   5.5407095  51.3258839  30.6732416
   6.6909039  50.7774210  31.4900804  67.6932526  43.6800766  60.4667425
  66.8115330  43.3290577  60.3418875  67.7228689  44.4572735  59.9087811
  67.2235012  15.4172015  29.4386005  67.6016331  15.3269076  30.3132963
  66.6573000  16.1864841  29.5006800   9.4809967  42.7465391  22.7962708
  10.2030325  43.2407188  22.4080920   8.8746482  43.4165382  23.1119871
  71.8303823  38.7470961  35.7239461  71.9345951  39.5903993  35.2832532
  72.0217705  38.0978775  35.0471020  18.4188342  57.0452261  21.1540842
  18.6822104  57.8165150  20.6521106  18.2006502  56.3906813  20.4906106
  51.7774534  72.0997334  52.5381041  52.2566843  72.2012997  51.7157602
  51.0498762  72.7178860  52.4692345   4.7495854  31.9442844  63.9804506
   5.6951755  32.0172882  64.1099215   4.5058089  32.7546787  63.5331631
  12.2967148  18.5550451  52.1252155  12.3917913  18.5358799  53.0774927
  13.1214452  18.9243829  51.8095589   8.2267278  45.7889557  10.4702687
   7.9941374  45.1840639  11.1747122   7.5474507  45.6585836   9.8085904
   9.6548253  17.5558960  65.0582409   9.2008603  17.0429599  64.3896294
   9.8389947  18.3936429  64.6333981  52.7682161  63.7162971   7.7317709
  52.1862650  64.2031717   8.3153087  53.2649708  63.1413984   8.3139664
  77.3634529  28.3337975  53.6549616  77.0375395  27.7495122  52.9703999
  77.9728794  27.7950668  54.1595364  74.4738007  43.9243937  60.8745670
  73.7608242  43.2934141  60.7757616  75.1334333  43.4614849  61.3911247
  51.1091805   8.5239685  45.0456476  50.7035923   8.2010525  45.8502960
  51.9897747   8.1488496  45.0540590  23.4023333   7.7022076  55.7325315
  23.0265117   8.2990527  56.3796520  23.1096745   6.8338490  56.0091829
  12.9781377   4.0523508  62.0116186  12.6271522   3.1697577  62.1302366
  12.2860920   4.5251837  61.5493059  17.1753716  21.9244981  31.6352606
  16.5218389  21.3338089  31.2608099  16.6682863  22.5329113  32.1727848
  80.5521011  41.4029121  34.4005227  79.8949528  40.8546638  34.8292518
  80.5719662  42.2052193  34.9221969  32.1336555   9.2713481  42.2844744
  32.9983234   9.4713145  42.6430750  31.6083431  10.0475192  42.4789858
  24.4631743   2.3967825  40.3412294  24.3285060   1.5713000  39.8757434
  24.9995995   2.1603142  41.0979080  44.6209908  11.9098032  31.2013555
  44.8874998  11.6171372  30.3298330  45.3730106  11.7138433  31.7601871
  32.3370528  68.8310099  24.7524762  32.4136972  69.0343618  25.6846809
  32.8059483  69.5405293  24.3132162  20.2656054  51.0915661  39.0062451
  19.9004769  50.2260637  39.1901422  21.2118316  50.9755945  39.0924788
  59.5224285  14.4512892  47.6729393  60.2087259  15.1091695  47.5615120
  59.8660040  13.8574338  48.3404112  11.4999819  25.4271650  49.4159508
  11.0958099  25.0062537  48.6571980  12.1504223  26.0215211  49.0419197
   4.0192312  17.5120246  36.5795755   4.9432039  17.6383829  36.7953062
   3.5579765  18.1588018  37.1135736   4.3172809  76.3464451  44.3581057
   3.3653101  76.4374733  44.3169069   4.6371099  77.2372580  44.5009041
  78.3113623   8.0039269  33.2236242  78.2894945   8.4351140  34.0779257
  78.9673948   8.4918106  32.7258086  40.5325460  70.1084661  28.0592012
  41.4151287  70.0158024  28.4179378  40.6704283  70.3433466  27.1415687
  43.0996895  12.4204493   5.6246984  43.4373045  12.6178980   6.4983451
  43.3331633  13.1856215   5.0991201  11.5391970  72.0618725  28.8243794
  10.9984541  71.2957525  28.6323047  10.9748387  72.6272535  29.3517065
  61.5200377   1.5725037  29.2717457  60.7541752   2.1441653  29.2179990
  61.1757040   0.6946787  29.1071558  45.2677059  63.7396669  51.8829584
  45.3250694  64.5909023  51.4489746  45.5035305  63.1080437  51.2034941
  18.3426178  64.9603224   8.2796353  17.3907304  65.0588703   8.2588685
  18.6279213  65.5387735   8.9869022  77.4731731  62.4508667  26.4709949
  77.4369192  61.8222809  25.7500243  77.6508284  61.9170856  27.2454309
  10.3097832  69.9464655  15.6048429   9.5451671  69.5470953  16.0196912
  11.0491967  69.4193649  15.9076047  33.2466817  58.1548166  28.8381815
  33.5705590  57.3424435  29.2272663  32.3522115  58.2386398  29.1685295
  14.7523880  61.3813066  41.2901163  15.0996506  61.1048555  40.4420519
  15.2902186  60.9174919  41.9318676  79.4185448  68.2885265  28.9249372
  79.1070747  69.0586996  29.4003820  78.8085842  67.5927925  29.1701627
   5.9961551  49.5363998  44.6994400   6.8129766  49.2311573  45.0942326
   5.6232321  50.1311541  45.3501558  43.0398750  33.5726166  17.1647537
  43.8112307  33.9104319  16.7096519  42.6047564  33.0166745  16.5183544
  19.1384816   9.1031039  50.7270908  19.2691863   9.5756966  51.5491629
  19.0722179   8.1842458  50.9869766  52.2475338  18.0228484  41.4161968
  51.3347006  17.8074968  41.6074848  52.2434378  18.2877553  40.4963923
  79.6038961   9.9300873  51.1350203  79.4340944  10.7888043  50.7477188
  80.3780270   9.6079397  50.6733179   1.8387988  70.2913046  10.5312133
   2.5892508  69.7159958  10.3826451   2.1430981  70.9169769  11.1886084
  45.5631256  44.8476791  47.3039484  45.1030684  45.2428198  48.0445147
  45.7561541  43.9550304  47.5905752  67.1672106   9.4243866  39.5971894
  66.7122030  10.0870788  40.1168442  68.0449152   9.3833202  39.9768996
  79.9608660  47.0011091  53.9766407  79.6346664  47.6523542  54.5976973
  79.6756363  47.3220491  53.1211424  75.3062391  76.3464355  45.3411913
  74.8094511  77.0047712  44.8553658  74.6457386  75.7234716  45.6443214
  74.4272327  35.9535718  38.5498738  74.9248028  36.7028618  38.8773179
  73.6351728  36.3378072  38.1740594  14.0967023  49.6568823   7.4185014
  13.2154608  49.7046375   7.7891284  13.9635336  49.3445873   6.5235317
  80.0032711  72.4424553  20.7503700  80.0809765  73.2285833  21.2909174
  79.3193722  71.9255924  21.1762404  53.8073969  11.5838051  33.8219237
  54.2652559  10.8772933  34.2773795  54.4402027  12.3015118  33.7957335
  82.4766590  13.7532663  66.3847685  81.9917886  13.1413209  66.9385338
  81.7999832  14.2859197  65.9668922  72.5532055  58.8654613  49.2579985
  72.2864199  57.9751110  49.0292263  71.7747211  59.3980694  49.0951252
   6.0174853  58.3446074  40.2770853   5.9927225  58.1364632  39.3431187
   6.3124049  57.5355577  40.6950426  61.1468601  11.2815893  15.8903301
  61.5689039  12.1380877  15.9575713  60.2312326  11.4474797  16.1147034
  78.5428619  47.9924345  42.0119333  78.8721132  47.9673052  41.1134958
  79.2083549  47.5327778  42.5238562  79.4439745  72.7233887  36.2848687
  79.2717505  72.3042917  37.1280336  78.6442327  73.2131338  36.0930371
   9.6747380  54.9018860  20.7912540   8.8164949  55.3212643  20.8526897
  10.2220237  55.5418921  20.3361678  60.4408169  13.0616939  41.4906788
  60.3080225  12.3152971  40.9063101  59.6278906  13.1205153  41.9926023
  34.4232488   5.4575026  23.6604881  33.6263609   4.9636349  23.8536072
  34.1808891   6.3713282  23.8102078  62.9724073   8.8583279   1.4942837
  63.0552197   9.7537464   1.1662605  62.9841423   8.9502156   2.4469909
  27.3018312  54.7647953  56.2971354  27.5492311  53.8402748  56.2801409
  26.5630484  54.8262072  55.6916094   9.9965948  30.5274224  30.9372926
   9.6443576  30.6190968  31.8225932  10.3564823  29.6407771  30.9133315
  16.4705074  62.1687603  17.6229179  16.6531897  61.8811083  18.5174096
  16.5625751  63.1210136  17.6540399  69.9337006  43.9298248  25.6219697
  69.0110636  44.0564108  25.8432150  69.9469137  43.1277418  25.0997448
  52.3904848  60.4761839  26.0304904  51.4947128  60.2383661  26.2697840
  52.4660730  61.3991547  26.2726474  42.6081228  11.9802368  35.4126716
  42.4196720  11.1310899  35.8122540  43.3374643  12.3294020  35.9249020
   9.0123534  19.9345553  41.5834522   8.3615232  20.3236461  42.1676254
   9.3965584  20.6802320  41.1223841  36.6151547  73.2126474  45.8901691
  35.7078934  73.0626917  45.6244278  36.9472623  73.8509226  45.2588606
  48.8275623  26.1780381  56.4402485  48.6838865  27.1182990  56.5474892
  48.7075329  25.8157492  57.3180723  24.0336442  48.8122034  26.8846297
  24.3056083  49.7071171  26.6811609  23.8397336  48.8280392  27.8218484
  63.8743591  38.6565757  63.7525558  64.2383814  38.1707907  64.4926453
  64.5004177  39.3642592  63.5993624  27.9593658  58.0368805  29.8663163
  28.3316135  57.1910334  30.1157212  27.2004294  58.1430435  30.4398799
  79.4815159  39.4466567  43.7849760  78.8483238  40.1541376  43.9065075
  79.3229771  38.8544321  44.5200729  14.8742902  54.9449015  14.8175371
  14.3791366  54.9919510  13.9997101  14.2909527  55.3273344  15.4730487
  40.7409382  19.5290124  59.5341492  40.5662680  19.3342948  58.6133862
  41.4635277  18.9468908  59.7691631   4.3511981  52.3273087  60.3630066
   4.0656972  51.4324093  60.1789474   3.9623821  52.5326681  61.2132263
  79.3203354  72.1866751   3.0758458  79.4965410  73.0595160   2.7246618
  80.1768112  71.7598057   3.0974516  15.7502592  58.1078911  15.7430065
  16.2081444  58.2684040  14.9178958  14.8832154  57.7994490  15.4797006
  48.4391689  49.0858126  38.3921003  48.3479023  48.5189390  39.1579700
  48.2662296  49.9667454  38.7241840  53.9568710   9.6399128  17.3334539
  54.5342541   8.8793355  17.3996425  54.1486025  10.1550889  18.1170762
  14.0735674  60.2592564  50.6905222  13.7944853  60.6859779  51.5006208
  14.8066080  60.7907677  50.3800774  19.7561443   0.5352038  26.5255904
  19.8553538   1.1232188  27.2743416  18.8412941   0.6349500  26.2622833
  80.2378368   4.1635415  33.7410092  79.6932459   3.5225049  34.1978765
  80.4203987   4.8347360  34.3985796  35.6584072  67.6884222  12.9706454
  35.0425172  67.1441936  12.4800086  35.8299208  68.4340906  12.3954999
  18.1576383  72.7589607  36.6582704  17.8985929  73.0981302  37.5150609
  17.3319149  72.5299740  36.2316847  47.4319029  25.6388831  19.8933768
  48.1217957  25.3493595  19.2963386  47.6786280  26.5332890  20.1287460
  21.3653803  38.1431937  31.8192077  20.5332828  37.7237368  32.0380735
  21.7571831  37.5691128  31.1610627  15.1791799  72.5014925  45.7564402
  14.8114967  73.3609772  45.5507040  14.7511148  71.9046879  45.1425886
  81.4603233  56.6378212  12.2389328  82.3470116  56.9815636  12.1300673
  81.2399006  56.2686157  11.3837516  74.6526766   7.2575861  52.5825930
  74.9577141   8.0825251  52.2048903  74.0297699   7.5202727  53.2602501
  30.5349636  59.7791576  23.0303741  30.8857369  58.9929056  22.6120472
  30.3665352  60.3812456  22.3055577  35.8660483  63.0693960  16.7463720
  36.2341309  63.1411839  15.8656943  34.9287748  63.2230663  16.6274834
  75.8070183   3.2808474  44.4228125  75.2455330   2.9458335  45.1219082
  76.2524176   4.0329131  44.8130035  40.0544167  15.3656459  25.4498839
  39.2965603  15.9343576  25.5857277  40.3353977  15.1260173  26.3329792
  40.0548601   9.1305983  41.8303156  39.2509580   9.1238284  42.3498583
  39.8657060   8.5555255  41.0888672  60.1129818   7.8425354  16.0131180
  59.4531631   7.9913914  16.6903996  60.5735064   7.0528150  16.2968326
  20.9907055  63.5408974  30.5970860  21.2428331  62.6916885  30.2344489
  21.3898420  64.1809893  30.0078440   4.4971836  75.8284807  32.1412182
   4.0659028  76.6815805  32.0917678   4.0449345  75.2933073  31.4890742
  36.3246655  45.0471401  14.4015169  36.8645525  45.8297205  14.2904985
  36.7870855  44.5285702  15.0599110  21.0700703  57.3691750   4.1076797
  21.6404843  56.6098261   3.9883268  21.6458988  58.0484772   4.4586763
  80.6917763  64.7852468  12.8327274  80.8409786  64.1121483  13.4967422
  80.4330254  65.5603123  13.3312702  25.8819366  48.3030939  35.3667879
  24.9553466  48.4772587  35.2014804  25.8844018  47.5137091  35.9081674
  30.7154179  73.2987833  33.8711834  30.6618738  74.2355537  34.0604568
  30.3117275  73.2053137  33.0083227  69.2352724  72.0224619  45.9076929
  69.3422031  72.5264263  45.1009607  69.7133398  72.5236750  46.5683508
  38.3686686  71.0993528  45.5700016  39.0512800  71.7576551  45.4399300
  37.5531483  71.6002035  45.5875778  15.0494707  64.1405725  41.9597960
  15.2393627  64.7233725  41.2245989  15.0182581  63.2665682  41.5707302
  34.2461777  56.2697887  37.9716659  34.1864562  55.9481955  37.0720887
  33.6930251  55.6735516  38.4763956  43.2933140  43.4254313  11.6637695
  43.6891890  43.6477613  12.5064349  43.9144945  42.8195238  11.2597430
  43.3188105  76.9343662  32.0662570  42.6388168  77.4338341  31.6141748
  42.8738260  76.1422586  32.3675609  29.8099136  63.4512568  45.1384020
  30.0184536  63.0865526  44.2783260  29.5211530  64.3454075  44.9557972
  38.6416984  50.0499868  26.1867094  38.3179641  50.9089422  26.4580488
  39.4149709  49.9025011  26.7312574  11.3946235  39.7654939  26.4668345
  11.3544846  39.0854597  27.1392727  10.5754411  39.6704602  25.9808898
  42.0967722  37.7990198  54.5616293  42.3818350  38.4194565  53.8907862
  41.5884399  37.1447635  54.0822792  29.4734287  72.2903156  36.3380718
  29.5403862  72.6193190  35.4416847  30.0641775  72.8491020  36.8430495
  15.4208314  52.1272039  46.3520384  16.1588192  52.2526121  45.7554817
  14.6612847  52.0337248  45.7770729  31.9761992  51.5906715  28.4794664
  32.0974088  52.5085402  28.2364488  31.0268855  51.4805269  28.5333395
  34.3244958   6.6251528  38.2116508  34.0632105   6.7565423  37.3002243
  33.7932730   5.8864939  38.5089970  29.5978022  67.3399019  26.7619848
  30.3753519  67.5455475  26.2429881  29.7683454  66.4658213  27.1128869
  23.1562281  26.7036271  10.7912457  23.5873413  26.1597991  11.4505041
  23.3525586  27.6021886  11.0563350  20.9541559  74.7854996  25.5975914
  20.5981374  73.9038229  25.7077026  21.5182233  74.7215080  24.8269010
  49.8511648  10.0410700  25.2755070  49.6400642  10.9691989  25.1742887
  49.4616365   9.7970235  26.1151123  30.3000021  55.7412815  26.2489390
  30.6305337  54.8482037  26.3458180  31.0836005  56.2727642  26.1084533
  42.8610897  57.4184465  20.6609917  42.8228283  57.0031500  21.5225577
  43.7077808  57.1509218  20.3035378  67.6856375  23.4631896  33.5620213
  67.3046112  22.7687311  33.0246377  68.2779360  23.0062437  34.1591907
   7.5459456  73.9642334  41.6157818   7.5152981  74.7291994  41.0412216
   8.4574062  73.6740875  41.5798855  38.3615589  68.0478477  45.7815123
  37.4319673  67.9364443  45.5823183  38.5070515  68.9922571  45.7253075
   9.6451622  58.0357504  42.9451942   9.6549165  58.1919718  42.0008802
   9.3577576  58.8671541  43.3225489  23.1262779  39.1454697  47.8133535
  22.7363801  38.5624051  47.1620083  23.4519720  39.8884463  47.3052788
  50.7910919  41.9957876  19.3867457  51.6067457  41.6167641  19.0592039
  50.1074505  41.4092207  19.0630138  14.9594116  12.8339660  18.1765199
  15.5224872  12.9523885  18.9414740  14.1885424  13.3705246  18.3611798
  24.3694878   5.4401302  52.4991417  24.0067387   4.5545030  52.4815369
  23.6416698   5.9913957  52.7865791  42.3197269  55.6027412  17.3563552
  43.2171869  55.7114601  17.0417404  42.4027443  55.0431395  18.1284845
  31.4478517  67.6540089  38.4264779  31.7898417  68.1641150  39.1606879
  31.9432211  67.9637718  37.6682663  37.8790903  58.2709789  12.2943592
  38.0836153  58.5553122  11.4035428  38.1916285  58.9841318  12.8511047
  24.3664479  76.1661863  15.3716660  25.2958870  75.9373331  15.3708398
  23.9370275  75.4255009  14.9436271  70.0349283   5.3858548   0.2997796
  69.7987366   4.4634229   0.3975683  69.2941046   5.8636320   0.6727955
  35.0484180  67.0739937  19.3809450  34.1151881  67.2759771  19.4481456
  35.0932646  66.3563681  18.7490964   4.2302737  73.4454632  22.3079681
   4.5938671  74.1025972  22.9014325   3.2825351  73.5639286  22.3711228
  37.1649313  75.1393223  32.3401618  36.3021517  74.8417377  32.6287627
  36.9950867  75.6118011  31.5252090  39.1377735  12.8997922  58.8564205
  38.7994099  12.2704673  58.2194805  38.5038519  13.6168933  58.8445902
  80.1336098   3.3607614  25.3046727  79.5320272   3.7029889  25.9658957
  80.9167480   3.9046481  25.3889537   5.6672740  13.6802971  22.1875763
   5.8789611  13.2295668  21.3701034   5.5377418  14.5933425  21.9310570
  37.3144436   5.9208786  16.1729980  38.2285976   5.6385314  16.2018704
  37.0429468   5.9476632  17.0904970  27.4065876  57.9150343  41.2874413
  27.7490664  58.1698656  40.4307032  26.4695573  57.7847528  41.1417150
  33.3597612  71.2738037  52.0665216  33.8012743  71.1661434  51.2240791
  32.4864101  71.5935230  51.8400908  76.5885544  75.0025558  62.7402496
  77.1423721  74.2239141  62.6833487  77.1762276  75.7299232  62.5357866
  60.6838703  67.1603918  52.2861624  60.5121946  66.3299227  51.8422222
  60.6751776  67.8127003  51.5856981  54.2591715  44.9533701  49.5899439
  53.5922289  44.3797302  49.9672461  54.8949814  44.3553734  49.1970301
  64.4922638   5.7327461  45.7310867  64.8559332   4.9287701  46.1020279
  64.8131037   6.4280289  46.3054323  78.8297510  16.5156806  25.5210304
  78.9140081  15.8197284  26.1727858  78.2931852  16.1310542  24.8279262
  40.5830002  17.9205120  18.7711215  40.0284576  18.2770979  19.4650686
  41.4734364  18.1570089  19.0307844  69.5382547  40.1317883  45.5408478
  69.4908142  39.1990685  45.3310633  70.4688215  40.2958918  45.6936407
  65.4544830  11.7117977  34.6138573  65.8373308  12.5655675  34.8156857
  64.5240450  11.8130589  34.8145270  18.3057332   6.0163194  41.4318228
  18.2950497   5.9422702  42.3860931  18.5317647   5.1379228  41.1259460
  76.8507671   1.5829231   2.9621878  76.1339426   0.9776264   2.7724224
  77.3837090   1.1264411   3.6132088  31.3256240  26.1372423  51.6158533
  30.8732128  26.1681843  52.4588203  31.0861588  25.2872324  51.2465668
  46.2234879  65.1154613  39.2539620  46.7514324  65.9127331  39.2971277
  45.3291750  65.4275751  39.1160512  54.1140413  39.2008758  66.7529488
  54.9252558  39.5386553  67.1325111  54.4014645  38.6504078  66.0245180
  43.9014673  14.3254614  42.3423910  44.1216373  14.6961534  43.1969929
  44.7396898  14.0316403  41.9856215  58.5845709  15.0894332  35.3138614
  59.3087149  14.5860577  35.6859660  57.8104019  14.7776616  35.7825780
  15.2778578  63.7811947  48.7602234  15.3167427  63.4090614  49.6412659
  14.8923099  63.0881166  48.2242870   8.3048141  34.0683365  59.9070454
   8.5091251  34.5362639  59.0973997   7.3605895  34.1806531  60.0168514
  68.7885141  19.3391836   5.5656385  69.4325495  19.9229050   5.9665370
  69.2395353  18.9704204   4.8061478  26.4948940  45.0519180  39.3669534
  26.9321275  44.2049026  39.4542551  27.2087264  45.6894302  39.3510389
   1.2119220  70.2880192  20.7745194   1.6390659  70.9494305  20.2301717
   0.4800305  69.9760437  20.2423167  60.0243330  74.8272800  32.3409414
  59.5981216  75.4567671  31.7592883  59.4918680  74.0351963  32.2680378
  48.9084673  32.1001124  44.2596292  49.6354294  32.6557326  43.9784861
  48.2887268  32.1295381  43.5307312  49.5378017  13.4302568   1.9739451
  50.2813053  13.2393694   1.4021106  49.7402430  12.9736578   2.7905026
   9.5211667  34.1942763  22.7845359   9.3673992  33.5430741  23.4690237
   9.0533531  34.9732232  23.0855751   0.1705499  65.3574038  45.0864363
   0.8799122  64.8666477  44.6714735   0.4012896  65.3726959  46.0152817
  77.9955196  38.6846471  26.0972524  77.7802753  39.4870543  25.6218123
  78.1053686  38.0234790  25.4138613   2.9316127  35.6615543  33.5299802
   3.4920287  36.1351776  34.1446733   2.0434166  35.8035922  33.8573408
  38.4938073  40.9345770   6.3095981  38.5886145  40.3420401   7.0553499
  39.0049744  40.5248880   5.6116760  37.8958416  50.7088184  44.3365145
  38.0159831  50.9555244  43.4194899  37.5391388  49.8212719  44.3010092
  77.3193359  77.5241566  50.2812529  76.8536091  77.7018213  51.0984230
  77.9287720  76.8195772  50.5012178  26.7789412   4.5723614  12.8980255
  26.0063505   4.4020739  13.4368539  26.5737462   5.3846192  12.4350297
  64.6893215  15.4088330  43.5115814  64.2430067  14.8015785  42.9214334
  64.0101814  16.0300231  43.7744904  40.2410698   7.3565400  30.2464223
  40.4000092   6.5282154  29.7938204  39.6497846   7.8366423  29.6666670
  68.9186430   3.2169613  51.8312931  68.0211830   3.2466006  52.1628332
  69.2296696   4.1195303  51.9010305  60.7375669   6.3102192  37.1059632
  61.5284920   6.5778440  36.6379380  60.2129889   5.8536494  36.4482450
  16.5430498   7.3064947   0.9791134  16.8039238   7.8249991   0.2179763
  15.6055391   7.4748856   1.0737082  58.1087685   4.2184916  23.9353681
  58.0363560   4.9294448  23.2985544  57.4012089   4.3824172  24.5588446
  80.0549507  64.4365120  44.7473097  80.9650230  64.6674681  44.5611286
  79.5817471  64.6631145  43.9467096  75.2050543   4.7877428  24.8034739
  75.8612823   4.0978870  24.7050190  75.5786467   5.3826624  25.4536533
  65.0002861  59.0573788  25.7321477  64.1303873  58.7410212  25.9759259
  64.8586369  59.9654770  25.4647064  40.9034252   3.7080285  18.9483261
  41.4735222   3.0839232  19.3974555  40.0473213   3.5894090  19.3597186
  76.6556217  30.9159567  -0.0248374  77.2460033  31.5351489  -0.4541148
  77.2318150  30.3599074   0.4996119   6.7130792  29.4542885   6.1786282
   6.7889601  29.1884995   5.2622056   7.5330353  29.1666770   6.5801060
  42.7466583  43.4160137  19.7843409  41.8869495  43.4876823  20.1990724
  42.8909254  44.2727470  19.3825638  14.9367595  24.5588899  44.5817947
  15.1390290  24.4197416  45.5069733  15.5903900  25.1927304  44.2864227
  80.5419540  58.8065195  59.7252369  80.6134033  59.0240717  60.6546450
  81.2077427  58.1332588  59.5849752  60.8189535  16.8579006  37.9870868
  61.6035938  16.9266558  37.4431753  60.1463318  17.3320425  37.4982095
   8.7797171  59.6215534  40.6580544   8.8090515  60.5064774  41.0217476
   7.9429513  59.5805073  40.1950502  64.0511608   5.6745070  43.0869722
  64.6646452   6.3003230  42.7019739  64.2696381   5.6672937  44.0188742
  33.6169958  53.3095264  21.8188524  33.5433555  54.2595625  21.9096255
  34.1219091  53.0342340  22.5840378  47.2102833  18.6193943  31.0505629
  46.5075064  19.2554057  30.9170628  47.6384068  18.9016473  31.8588185
  16.9817948  73.5285044  39.3937707  16.8897331  73.0515146  40.2185392
  16.3845837  74.2716837  39.4789433  26.6320682  60.2890587  23.8594866
  27.4092650  60.5332994  24.3620229  26.0618711  61.0560751  23.9123368
  75.4918766  57.9464579  46.5511656  74.7248983  57.3803377  46.6376734
  75.7337189  57.8825998  45.6272268  24.8364377  59.9859047  41.5018940
  24.3206096  59.2122698  41.2746477  24.3153858  60.7231283  41.1837101
  69.4940233   2.7965465  36.7024159  68.7466049   2.9520127  36.1249828
  70.2432632   2.7266440  36.1108255  72.9029322  44.6292210  46.6952610
  72.8454161  43.7194109  46.9870901  73.8089085  44.8812437  46.8739271
   1.3969085   6.6130084  46.9465351   0.8337232   6.2233591  47.6152849
   1.6726203   5.8734465  46.4049959  63.9053583  63.7489033  57.7687836
  63.9360666  63.0614567  58.4341478  63.8265848  63.2766485  56.9399261
  62.0000280   0.4874758   8.5907030  62.5820125   0.0568727   7.9645193
  62.4703992   0.4449037   9.4232714  49.9400663  52.5778627  26.1773562
  50.0049496  52.6318407  27.1308279  49.1581106  52.0486736  26.0200810
  58.9033604  43.9355230   2.0296004  58.3064365  44.6169376   2.3387732
  58.6219788  43.1442213   2.4888396  60.3644419  64.0558720  26.4083195
  59.6196032  64.2998123  25.8588219  61.0809135  64.6112013  26.1008978
  41.5500784  11.2692881  40.9421921  41.0091400  10.4890049  41.0637331
  42.4464035  10.9356487  40.9032297  81.2169647  16.4357305  35.0812411
  81.1623001  17.2291172  34.5485282  81.7611313  16.6856635  35.8280015
  79.6340466  43.1593752  57.6661253  79.3592262  43.7134027  56.9355392
  78.8661194  42.6224375  57.8616238  18.4426939  74.8026228   0.5837028
  19.3320394  74.9721003   0.8944634  18.1030679  74.1364145   1.1812440
  55.7352257  59.5275831  17.1162963  55.8135653  59.0874958  16.2698805
  55.3931665  60.3959990  16.9039738  54.8654270  16.9084346  31.3633204
  55.0725508  17.8242064  31.5495777  55.7137156  16.4650369  31.3691568
  77.5139809   9.5883942  38.3755612  76.7820358  10.1415300  38.1025600
  77.6789856   9.8406559  39.2840576  45.4087067  76.2181139  41.9747543
  45.8101606  75.3547812  41.8761396  44.5717669  76.1469173  41.5157366
  54.8059702  36.2155104  50.4007387  55.7342339  36.0270381  50.2627754
  54.4691658  36.4128518  49.5267487  32.9105210  31.9589829  23.4455705
  33.3144617  31.9877625  22.5782537  32.2476864  32.6492167  23.4241009
  71.6724443  25.5912733  28.4085011  72.5875902  25.7148981  28.6604047
  71.2552023  26.4306855  28.6022282  55.8787346  22.9790568  26.9899607
  56.7440557  23.3372378  27.1878433  55.9436321  22.6839852  26.0816908
  50.4219866  73.5999012  41.0719204  50.2316093  74.0069866  40.2267790
  50.1375389  74.2459202  41.7184353   9.4367003  47.5965929  13.5975647
   8.5193449  47.4635220  13.3588505   9.8929119  47.6770544  12.7599311
  41.4278316  36.7666054  65.9144402  40.5836773  36.4427948  66.2287378
  42.0538473  36.4936066  66.5851164  75.6776094  17.3626053  14.1125417
  75.5125523  18.0128694  14.7952890  75.5778790  17.8458917  13.2923460
  74.2039967   6.2154126  41.3806009  73.9981842   7.1488500  41.3299274
  75.1219988   6.1868483  41.6502047  78.7445831   2.7651459  35.2904129
  78.3680344   2.0305882  34.8057842  78.1987476   2.8406882  36.0730910
  53.7958622  72.9804707  35.4798031  53.5345936  73.0347919  34.5605540
  54.4484472  72.2805738  35.5023670  60.4553223  76.6964245  50.9857464
  59.9232531  77.4903822  50.9332132  60.0502539  76.1824274  51.6842842
  61.4763737   0.5148869  33.3020687  62.3343325   0.8462301  33.0368447
  61.3347483   0.8865948  34.1727066   6.0806447  45.8227539  64.9134064
   5.3244936  45.5270338  64.4064379   6.4456952  46.5438223  64.4005346
  59.0618467  23.3625197  30.6883121  59.7811890  22.7432179  30.8117771
  58.2964802  22.8112388  30.5254221  36.4509702   9.9004310  29.5147943
  36.0366058  10.7589686  29.4285011  36.3496852   9.6775204  30.4401517
  26.9283652  65.5534172   9.2044985  27.5529814  64.8563290   9.4048864
  26.1654258  65.0967884   8.8500369  51.1978817  66.0317993   3.1266260
  51.3291693  65.8168983   4.0501046  50.3077221  65.7359505   2.9360679
  10.8210588  62.3980713  46.7509604   9.9122888  62.1883631  46.5355730
  11.0220850  63.1674290  46.2181330  71.8409538  72.7184677  11.5496981
  72.0495605  71.8505430  11.2041271  72.4775314  73.3007288  11.1350107
  54.3340635  61.1543703  62.5522804  54.3541288  60.6432819  63.3613682
  55.2465105  61.4019632  62.4026966  27.4138021  60.3660774  61.6183519
  27.3760438  60.9265995  60.8433533  27.9991269  59.6510839  61.3685369
  43.0929232  76.1231279  25.9579134  42.8889370  76.8669701  25.3910589
  43.9550543  75.8280277  25.6648731  42.3534679  54.8656368  43.4631252
  42.1743202  54.4494629  42.6199579  42.4780035  55.7908916  43.2518768
  71.8860579   5.9766585  15.2683556  71.5308809   6.6780138  14.7222960
  72.3596764   5.4132020  14.6564448  39.0853357  65.6827784  29.9436808
  39.9770355  66.0105228  29.8266721  38.5328746  66.3297462  29.5049906
  68.7059498  54.0319490  14.3211210  69.4334936  54.1640282  14.9289596
  67.9338837  53.9639807  14.8828351  33.4581304  75.6814003  11.1263204
  33.9684176  75.3268242  10.3982329  33.3018684  74.9295950  11.6978121
  43.6132336  31.5062809  59.4045162  43.0514050  31.3145781  60.1554012
  44.2654896  30.8057261  59.4083786  33.1341839   9.3915462  12.1101236
  32.8088760   9.1857338  11.2337399  32.3897672   9.7997975  12.5521708
  55.7831955  43.1909657  48.3967590  56.6851711  43.3069849  48.6954355
  55.7951593  43.4749460  47.4827290  23.4042430  29.3894172  14.5227337
  23.2393742  30.3226948  14.6570647  22.5429559  28.9798546  14.6044433
  81.0491848  11.3270009  43.6752367  80.6600571  12.1455932  43.3674812
  81.1702728  11.4580536  44.6156597  19.9357533  65.0204277   2.1430939
  19.3080580  64.4935989   2.6377439  19.6357274  65.9219599   2.2590739
  35.2526140  65.2804756  60.0064754  35.7084322  64.8485184  59.2840672
  34.8157167  66.0291624  59.6004868  40.8303022  13.8282180  40.1070213
  41.1011457  12.9221416  40.2550030  40.7208204  13.8935792  39.1583538
  58.2554960  69.6038580  28.1414771  59.1889524  69.5104980  28.3316660
  58.1780100  69.3904591  27.2115922  73.1085730  71.7829609   6.9459444
  73.7537956  72.0410776   7.6041985  73.5911989  71.2114954   6.3486761
  67.9488802  65.9019279  55.5545998  67.0066786  66.0386229  55.4555941
  68.0443287  64.9547100  55.6540918  42.1426249   9.8365885  27.9133296
  41.6327477  10.2481675  28.6110830  41.4953136   9.3623936  27.3914504
  55.2166748  12.3947036   3.7406233  55.9571075  12.8232253   4.1700011
  54.7250938  13.1112731   3.3392403  22.3942494  56.9040203  44.2507648
  23.2857943  56.9066620  43.9023781  22.1227527  57.8214264  44.2210007
  71.7334557  52.9900169  11.1843133  71.5221024  52.0980644  10.9086514
  70.9825706  53.2618809  11.7120433   8.8182002  27.1659708  30.8452606
   8.7115943  27.9414773  30.2943921   8.7806875  26.4306784  30.2335644
  53.5687351  48.9713335  13.8270783  54.2081976  48.2740545  13.6817324
  52.8075123  48.7100363  13.3089137  34.4480944  14.0758455  15.7194865
  35.0928593  14.1854692  16.4184093  34.6531725  13.2231247  15.3360260
  59.0396070  70.5997086  42.5420809  58.6824942  70.2671528  41.7186069
  59.9816179  70.6653976  42.3854399  34.9885702  17.2871292   4.7734281
  34.7596693  17.8583848   5.5065739  35.2348852  16.4580834   5.1836032
  40.9360313  41.5027905  11.4052010  40.7608938  41.6165876  10.4710662
  41.8339396  41.8138838  11.5201795  79.7778702  26.9730139  51.8265533
  79.0322161  26.8292522  51.2438297  79.9875212  26.1030555  52.1663332
  51.9265223  70.0556707  54.1230297  52.7572823  69.6075201  53.9641905
  51.9090080  70.7631969  53.4785652  57.2973251  70.4673481  50.7568884
  57.5167513  70.7651854  51.6397142  58.0122519  69.8771429  50.5186224
  76.6844845  13.6000609  38.6607242  76.7298651  14.0163016  37.7999592
  77.4271584  12.9963362  38.6742830  62.0262814  64.7196770  62.7912235
  61.2424231  65.0699520  62.3680115  62.7414274  64.9480677  62.1973896
  66.5200281   9.8034132  66.2620878  67.3337507  10.0953269  66.6730309
  66.7994785   9.3863237  65.4471207  52.1696663  13.1567931   9.4329661
  53.0655384  13.4438050   9.6097958  51.7840338  13.0278385  10.2995050
   2.4241455   4.5867321  51.9216204   2.0713715   4.0997803  51.1768675
   1.7700407   4.4760701  52.6116467  68.8779640   3.3178902  60.6634188
  69.6775389   3.6040297  60.2217913  68.2140541   3.9512897  60.3909111
  70.7815933  21.3850713  23.8453555  70.1096535  22.0652294  23.8912320
  70.6519651  20.8663821  24.6393251  64.5984840  57.7937222  23.1351662
  64.9095440  58.3995628  23.8077950  64.9247694  56.9381571  23.4140372
  64.9131489  13.6126900  39.5632243  65.2591324  13.6618829  38.6720991
  64.8014498  12.6759672  39.7254157  12.0416570  53.8786459  40.9585762
  12.0903015  53.6255598  41.8804264  12.3614895  54.7806549  40.9406376
  28.6001873  53.1557274  26.2171364  27.7592587  53.3490276  25.8027577
  29.1523075  52.8390455  25.5022168  63.4053278  10.4525352  42.7115059
  62.5182915  10.1027536  42.6275301  63.2875299  11.4022791  42.7299595
  72.9913425   5.2844083  47.1182632  73.4488583   5.4754418  47.9370546
  73.3829927   5.8808869  46.4802551   5.8906239  16.9490552   9.6010184
   5.7189155  17.2641253   8.7136179   6.2437278  16.0678852   9.4781870
  69.2117071  24.3016100  10.5908418  68.8764906  25.0034785  10.0329518
  68.4962606  23.6671376  10.6334543  29.4188285  72.9740906  53.5836697
  29.0662909  73.8448668  53.4001112  28.6925387  72.5028133  53.9918756
  79.7698593  17.5093722  20.3779316  80.5181503  17.0363390  20.0138879
  80.0041771  17.6599097  21.2937188  67.3058224  15.2135110  32.4841762
  66.3514614  15.2597880  32.5414729  67.5556326  16.0038841  32.0054960
  32.1911025  53.9324617  27.5971174  33.0538535  54.2221260  27.3004889
  31.9161153  54.6017408  28.2237601  41.8453455   2.1351975  43.7873316
  41.9494486   3.0788964  43.9090967  41.4871359   1.8244825  44.6188164
  13.4692383  71.4120102  30.4232049  12.7405190  71.8301916  29.9645925
  13.4194195  70.4920816  30.1634407  22.1546078  26.7335868  63.1678915
  22.7815199  26.5733600  62.4625254  22.6885915  26.7581606  63.9619255
  58.3019829  40.3295469   1.8190402  57.3746395  40.5265903   1.6869609
  58.3564568  40.0309181   2.7268311  70.3816414  69.2730570  41.7705011
  69.9865961  68.9913511  40.9453869  69.9522924  68.7367344  42.4370241
  20.5550838  26.3851571  38.5021091  21.1115599  25.9216475  39.1279864
  19.8237348  26.7105031  39.0269995  64.1581249  10.5197763  65.0815868
  64.4486523  10.2888560  64.1992569  64.9483728  10.4570115  65.6180573
  70.8848286  50.3733826  45.8196354  70.3643608  49.5707417  45.7862234
  70.5433321  50.8489370  46.5769053  20.2246475  22.4062157  20.4550815
  21.0457611  22.8356028  20.2150202  19.7015738  22.4244952  19.6536493
  21.0199261  55.7670307  55.7138300  20.5901432  56.2011528  54.9769068
  21.4661717  55.0161457  55.3223372  75.7576466  52.5624895  28.6703491
  76.0188198  51.8587112  28.0764484  74.8607969  52.3426580  28.9224720
  44.6731901  54.6565294  36.7988133  44.5592022  54.7075462  35.8497953
  45.5049038  55.1004696  36.9643545  56.5485239  62.5011826  18.1247044
  56.3894510  61.7167091  18.6496139  56.1115074  62.3245955  17.2915995
  55.4743767   4.6817353  24.8555541  55.2703094   3.8555327  25.2937078
  55.4926920   5.3286940  25.5607772  23.2132292  33.9941072  22.8915429
  22.9127264  34.0170121  21.9830251  22.4540114  34.2754388  23.4021020
  74.9942970  38.6150289  24.4184113  74.6983242  37.8844333  24.9614215
  74.5282793  39.3756461  24.7655725  38.0829358  63.0356789  38.2914877
  37.1945071  62.7435398  38.4954047  38.1876707  63.8478708  38.7870741
   5.8744013   5.2275240   2.6266989   5.3658593   5.2269506   3.4376344
   5.4104930   4.6180379   2.0526369  15.1508498  44.6018600  26.5916800
  15.5398607  43.8519001  26.1417270  14.5318139  44.2149878  27.2108364
  81.9315147   5.9204161  42.8477955  81.3582611   5.9240627  43.6143494
  81.3665009   6.1931849  42.1248865  68.8667250   5.0549966   6.8668324
  69.2238903   5.8174169   7.3222238  69.0525198   5.2194488   5.9423500
  40.9937716  58.6573458  11.1171985  41.5619469  59.0495205  10.4541707
  41.3987589  58.8958073  11.9510770   6.6332805  40.5283976   6.2597936
   6.6963571  41.4806318   6.1856061   6.6656476  40.2150726   5.3559071
  47.3230219  65.9558010  27.3011303  47.7405071  66.2655735  26.4974022
  46.3851452  66.0547495  27.1373487  79.9577093  11.4899564  59.6920967
  80.1867485  11.0456347  58.8757944  80.7976055  11.7688489  60.0568104
  73.7136126  20.0687146  36.7133760  74.4225979  20.3857994  36.1538887
  73.4723330  19.2220819  36.3375711  49.6471739  38.3900881  45.6684065
  50.1076365  37.8631949  46.3215446  50.2714300  38.4778786  44.9481106
  14.2363441  26.6672802  48.9303398  14.1384614  27.1148229  49.7707891
  14.5740664  25.8010912  49.1581345  70.7908678  17.1956444  40.0926828
  71.1995649  16.6188312  40.7380390  71.2050962  18.0466366  40.2357197
  13.1421602  76.1925697  44.1615057  12.7397668  75.5831671  44.7803307
  13.9614308  76.4543867  44.5815992  51.7006969   6.1830825  27.8459978
  51.5265703   6.6964805  27.0571160  51.0053730   6.4346820  28.4538245
  37.2612453   0.0281914  47.1902370  37.0543718   0.8963855  46.8442965
  36.7650938  -0.0287176  48.0068302   3.0996290  55.3456354   7.7539587
   2.4634069  54.9926901   8.3759582   3.9503255  55.1716375   8.1567895
   6.1154622  39.6019125  22.3687458   6.8371111  40.0993347  21.9840002
   6.0887688  38.7891722  21.8637991  56.1244631  74.6594286  50.5829525
  56.2468195  75.3695440  51.2130308  57.0112562  74.3555069  50.3894091
   3.7255359   6.8235022   0.8629695   4.3217498   6.6188049   0.1426504
   4.3004531   7.0770949   1.5850449  12.5179839  26.9196415  55.7755041
  12.6144123  26.0131598  55.4835701  12.2587848  27.3985100  54.9882746
  59.0979815  10.9297681  34.0433764  59.1185713  11.5563285  34.7667241
  59.6619272  11.3177550  33.3743048  66.1112070  60.4250050  38.7132525
  66.5730715  59.5942688  38.6001801  66.0160780  60.7689810  37.8250718
  15.8394158  16.7811441  17.3279023  14.8895395  16.7419267  17.4393868
  16.0746729  15.9233809  16.9741678  71.3912868  25.3827477  36.0573888
  70.4761791  25.1050305  36.0984159  71.5626812  25.5055594  35.1237011
  52.5739527   3.0682141  22.8889513  51.7118406   2.9229581  22.4992037
  52.4319887   3.7624654  23.5324526  69.8988914  30.7245827  46.3573217
  70.7009315  30.8753109  45.8570766  69.7103167  31.5685964  46.7675829
  36.3883495  72.4480486  10.7026696  35.7657027  72.8895855  11.2802410
  37.2028756  72.9396629  10.8080006  80.4354668  75.1172161  25.1285338
  79.7566032  75.7849121  25.2263355  80.2919865  74.5203972  25.8630109
  20.5819917   5.0997448  16.6824579  20.9719896   5.9511423  16.4843249
  19.6471596   5.2198094  16.5154088   1.1422889  24.8421240   4.0490878
   1.8064365  24.5865965   4.6892792   1.4485738  24.4669223   3.2234699
  56.6523027  75.0960112  27.4514985  57.2254658  75.4593468  26.7764378
  57.1730423  75.1341009  28.2537508  19.8853481  73.1301022  15.0796437
  20.7596993  73.5189199  15.1033902  20.0177526  72.2666168  14.6883643
  34.3298793  73.5978842  52.7101278  34.1429138  72.6708221  52.5623751
  33.6423922  74.0602350  52.2307253  15.1232314  60.5620670  63.5714006
  15.8871090  60.4812860  64.1425371  15.3728676  61.2275028  62.9302263
   7.9435205  46.5305996  18.4549415   8.4036958  46.3263845  19.2690444
   7.0160538  46.4486647  18.6770308  48.3049679  67.2643566  21.0240102
  49.0945005  66.7643547  20.8169603  48.6246014  68.1434011  21.2273431
  33.5114717  61.9000292  18.8708794  33.6347985  62.8225565  18.6473584
  33.7084699  61.8518353  19.8063469  81.8345642  47.5783587  19.8690224
  82.2266579  47.6126385  18.9964855  81.0034275  47.1213245  19.7403336
  22.3869109  23.8988304  63.2289696  22.5416994  24.4072604  62.4328756
  21.7993855  24.4448161  63.7514162  82.5193024   7.0283890  19.4185746
  81.7176247   6.6484600  19.0591311  82.9220486   6.3144118  19.9128044
  75.7153606  35.7976055  18.6412013  76.3663006  36.1343455  18.0254745
  74.8736238  36.0498261  18.2616091  33.0893421   2.8640997  18.2523680
  32.6150966   2.7702489  17.4262226  33.4455037   1.9924507  18.4244418
  25.7406044   7.4856806   7.3632979  25.4595351   6.8743145   8.0440801
  24.9651527   8.0173910   7.1838790  10.7369626  27.4284983  19.2240334
  10.1917124  27.4655199  20.0098848  11.3799644  26.7444301  19.4106591
  49.9255276  33.4491301  55.0005388  49.7027922  33.5106468  54.0716457
  49.1025925  33.2138729  55.4290962  37.0296884  22.0071459  59.4227886
  37.4888587  22.3362851  58.6500883  36.6310096  21.1865759  59.1330481
  62.0517540  72.8496647  23.7281823  62.9611492  73.0945826  23.5571766
  61.5367746  73.5646248  23.3542109  43.0696297  13.7889969  28.7870884
  43.9564180  13.4395432  28.8749719  43.1965208  14.7037792  28.5354877
   1.6161845  41.3824010  67.3730170   2.3198674  41.6990856  67.9393885
   1.7843030  41.7976904  66.5271431  71.3640165  20.3477240  63.4449911
  71.8934488  21.0261154  63.0258036  71.9098473  20.0275779  64.1631842
  64.5255661  63.1423235  64.7286367  63.7517071  63.0338812  64.1758204
  65.2443027  62.7846098  64.2073965  18.3129203  74.3532562  34.0815067
  18.7793660  74.2025852  34.9036717  17.9442108  73.4993649  33.8553476
  69.4242001  77.1559858  51.4779091  68.9648247  77.9918528  51.5587234
  68.9806080  76.7075300  50.7579470  24.9909568  45.1945972   7.5480115
  25.0947213  44.9897385   6.6187656  25.5816054  45.9327602   7.6979506
  18.6212051  18.7992811  34.8175359  17.7339280  18.5928380  35.1113939
  18.5976553  18.6628449  33.8704014  69.6040106  69.0824461  66.9665432
  69.9361134  68.8121367  67.8226233  70.2622223  69.6940565  66.6365147
   5.0163651   8.4185505   4.2838362   5.7801139   8.8492674   4.6677664
   5.2888805   7.5086409   4.1653764   3.7039125  43.6405706  19.7786677
   4.6430266  43.4858513  19.6768904   3.2909617  42.9874229  19.2137730
  70.9712839  14.2064512  28.6181593  70.5889273  14.2279601  29.4954109
  70.4182434  14.7924030  28.1014037  31.5045309  47.2864246  11.3031530
  31.2641263  46.8919563  10.4647994  31.8430281  46.5572071  11.8226659
  61.1264801  68.7103653  66.8760586  61.7169905  69.0665722  66.2122440
  61.4801455  69.0284300  67.7067137  20.0221491  31.9564056   1.2376571
  20.8601356  31.6086268   1.5427144  19.4146693  31.7825651   1.9566697
  37.8777742  34.0992403  11.0409319  37.6422882  33.7057495  10.2007282
  38.1008959  35.0051546  10.8269954  24.2352033  25.2051115  29.3963695
  24.0187836  24.3010092  29.6243930  24.8728538  25.4729486  30.0581074
  20.1910520   8.0365378  16.4661765  19.6776569   8.3502537  15.7217038
  19.6137321   8.1519806  17.2208989  22.6187634  43.3010912  27.4725795
  21.9180179  43.7645054  27.9313111  22.6539874  43.7138367  26.6096568
  43.3780384  11.7111492  43.9597273  44.2990541  11.8644404  44.1706038
  43.3603764  11.6339648  43.0058050  57.7051497  74.2055416  29.9188495
  57.6895618  73.2638216  29.7480965  57.1313667  74.3211603  30.6762338
   4.2865738  58.2525969  53.1419802   4.7246289  57.4802351  53.4994650
   3.3903390  58.1943464  53.4730434  64.6323299  72.3818111  35.3513050
  65.4234934  72.5349045  35.8678794  64.8200226  71.5842772  34.8563886
  23.8919902  31.1155939  36.4676237  23.1266975  31.1851287  37.0383453
  24.5603967  30.7005310  37.0127702  54.9286461   4.3716243  62.0242786
  54.2614508   4.1374105  62.6694298  55.0415802   5.3163868  62.1286917
  32.6499772  44.6632385  31.8311834  31.9036674  45.2331495  32.0167971
  33.4108424  45.2421570  31.8777657  17.6752567  13.9027631  28.4407163
  17.9975104  13.2815576  27.7876544  18.3721447  13.9449263  29.0955448
  18.1607628  37.4328470  36.8771911  18.1108880  38.3424091  37.1712041
  17.4031985  37.0089054  37.2804308   3.3387101  64.0016603  24.1001654
   2.8400618  64.6824026  24.5520186   3.9251131  64.4822550  23.5158777
  35.8180428  18.0660629  11.6616178  35.0357771  18.6083353  11.7627728
  35.7601786  17.4272704  12.3721290  62.7515030  16.4042544  31.2845755
  63.5134697  15.9887648  31.6883206  63.1217194  17.0295799  30.6615663
  69.8191500  72.4092484  32.6138878  70.0012875  73.1693125  32.0612931
  68.9888144  72.6178312  33.0419827  24.8555207  16.1250150  29.4525385
  24.0886736  15.6879139  29.8228335  24.7491384  17.0440769  29.6979761
  55.9063530   9.7071904   4.3594611  55.6868839  10.6003392   4.0942273
  55.0614500   9.2990977   4.5487517  16.5568888  17.1908748   9.2741197
  16.1385310  16.7665339  10.0232148  17.4214876  17.4464071   9.5956856
  20.4052567  60.1648569  62.5170708  20.3201509  60.4810667  63.4165144
  19.6615529  59.5738125  62.3995972  14.1385198  36.0070848   1.6895843
  14.0292788  35.8838749   0.7466539  13.4720373  35.4441714   2.0834890
   6.8945628  16.6751897  25.7880116   7.8384602  16.5187275  25.7595634
   6.7608929  17.1892858  26.5842962  40.7234573  71.5887690  61.3195610
  40.4923677  70.6902933  61.5552902  41.2767696  71.4980841  60.5437708
  43.0778551  76.8435478  15.0352907  43.8809824  76.4923668  14.6507287
  42.4091244  76.7004442  14.3655479  25.8002496  37.0769453   7.2722042
  25.6601834  36.7974925   6.3674825  26.5512991  37.6686144   7.2265792
  70.4432154  65.5188131  50.1442432  71.3412714  65.5679560  49.8166561
  70.5007410  64.9577284  50.9176159  15.6180549   9.8831546  14.0100133
  15.1893604  10.7227147  14.1761231  16.5534663  10.0860536  14.0184426
  21.2971592  25.5099964  32.4647641  20.6510139  26.1569929  32.7478266
  22.0357871  26.0310674  32.1498871  54.3346214  51.0603428  43.5207129
  53.4588623  51.0008049  43.1389618  54.3817949  51.9484997  43.8745260
   0.3577862  23.9202380  11.0614073   1.2983364  23.8536859  10.8965802
   0.0852077  23.0241370  11.2587321  80.8777237   2.7097440  45.2575874
  81.2290573   1.8738815  44.9507809  81.0387611   2.7053830  46.2011337
  34.0865302  41.6359425  12.1694791  34.7398973  41.6288853  12.8689742
  34.3956900  40.9784317  11.5463185  47.9382420  34.8475862  13.3277130
  48.0032635  34.8967862  14.2814338  48.5202980  35.5387831  13.0119872
  27.5411916  47.4808836   4.4535354  27.7334619  48.1520319   3.7986878
  27.5191975  46.6621780   3.9580905  22.8221464   4.5913133  29.5397425
  23.0580950   3.6970723  29.2929769  22.0749474   4.4879287  30.1290107
  82.2016144  75.6398487  17.6673996  81.5058041  75.8529663  17.0455754
  82.9409409  75.3775644  17.1189106   0.6174658  42.4756145  43.8444948
   0.8351939  41.5525150  43.9737749   0.8634061  42.6548815  42.9369688
  28.5696554  48.5254526  14.8630416  28.4949517  49.4707108  14.9939597
  27.8143382  48.2983398  14.3206894  73.8425875  75.2530622  32.9523087
  72.9065847  75.4317522  33.0428720  73.9054394  74.2979288  32.9550409
  24.5875192  22.1433091  58.3623648  24.8667574  22.7846146  59.0158081
  24.6463346  21.3009310  58.8131142  56.9214678  26.9786739  21.6683674
  56.6816759  27.8190184  21.2777853  56.1075592  26.4749098  21.6711736
  74.0590191  22.1009874  25.3048849  74.3462324  22.8419423  24.7712874
  73.3584023  22.4567866  25.8514857  13.9739776  13.8474214  33.9941788
  14.8886490  13.7398672  33.7333345  13.7789607  14.7663391  33.8103580
  82.1689224   2.8503498   8.0491507  81.8483543   3.7498903   7.9836154
  82.1667480   2.6631004   8.9878547  56.6343260  39.0960884   7.1310860
  55.9565735  38.9653063   6.4679319  56.6266584  40.0384521   7.2987902
  26.8044877  76.9070053   2.6029357  26.0480070  77.1304083   2.0606644
  27.2569847  77.7396917   2.7375242  82.1200085  61.2101984   5.3445297
  82.2749043  61.3649940   6.2763453  81.3749123  60.6097412   5.3220946
  10.4978192   9.5341563  42.8938341  10.3334165   9.2587632  41.9919682
  11.4517391   9.5382297  42.9729080  51.2087584  46.4290905  62.8188419
  51.9667196  46.1497355  63.3323431  51.1734724  47.3778582  62.9406118
  75.6985617   3.3628657  18.0151343  75.6807137   3.9289951  17.2435057
  74.8197508   2.9856837  18.0558455  57.1488333  44.8815203  12.8567052
  58.0946732  45.0226688  12.8155231  57.0204115  44.3463087  13.6398351
  13.2099795  61.8172550   3.6787555  13.0961454  62.6372004   4.1593415
  13.7788618  62.0472240   2.9440999  46.0868216  71.7347860  43.8489246
  47.0227146  71.7388296  44.0497160  45.6628752  71.9536209  44.6787548
  79.6167040  51.2804079  34.9818134  80.2974415  51.4595318  35.6304598
  80.0356007  51.4581060  34.1396809  73.1319571  28.4490156  16.2418115
  72.7984524  29.2898393  15.9287274  72.3474407  27.9231930  16.3976145
  10.5447006  15.0853765   7.4033415  10.9400642  15.9558117   7.3557800
  11.0478461  14.6303535   8.0786425  18.4280884  36.2169671  43.0640602
  17.8714585  36.1549211  43.8402987  18.6767125  37.1403027  43.0208063
  67.2644091  32.5437379  19.2588627  68.0588198  32.7165294  19.7641206
  67.4501610  31.7292452  18.7916040  17.7246583   8.5283118  30.2438903
  18.2447827   8.3661002  31.0309029  17.8070009   9.4698256  30.0922227
  26.4670634  47.1576786  17.9279149  26.0413980  47.6097345  18.6563981
  25.7436013  46.8395710  17.3878741  17.4183333  27.9673958  48.7946844
  18.1286728  28.3103251  49.3369484  17.1932888  27.1285868  49.1971588
  76.5225840  71.2917233  66.0940027  76.8177938  70.4337883  65.7889938
  77.2403717  71.6116524  66.6404963  19.3888772  23.7021542  39.7915077
  20.0289917  24.4034123  39.9128366  19.5686436  23.3628368  38.9147067
  70.7929087  77.2597837  22.0941305  70.9324646  76.6591883  22.8262806
  70.7007647  76.6895962  21.3308287  14.1040039  34.1513157  15.2019012
  14.6501696  33.4806848  15.6120121  13.2776976  34.1148520  15.6836891
  58.3481073   1.2995422  51.1122847  57.6585245   0.9182370  50.5688620
  58.5647058   0.6118284  51.7418623  31.7503071  29.2399383  17.6125419
  31.4956665  29.1973114  16.6908193  32.1039963  28.3712721  17.8037333
  45.5418015  61.7767096  59.6387053  46.3910103  61.4797592  59.9656487
  44.9901867  60.9947252  59.6600103  21.6456056  13.7598002  21.1582398
  21.7877173  12.8730893  21.4895725  22.4432397  13.9637327  20.6699538
  23.5490370   1.6663191   5.8452356  22.6828599   1.5515895   5.4543334
  23.4359169   2.3801011   6.4728904  38.9671087  21.9856024  17.9912746
  39.8693275  21.6913033  17.8662968  39.0265322  22.9408526  18.0052447
  33.9102364  25.5430245  49.5188856  34.4648218  26.2738180  49.7920322
  33.5389757  25.2062607  50.3343534  56.6869354  41.8476200   6.9317359
  56.8868351  42.3396111   6.1353564  57.3135328  42.1731377   7.5779921
  24.2673254  23.1080317  26.3841128  23.4511971  22.6906300  26.6596937
  24.9233246  22.7811122  26.9997573  22.0058370  14.7941661  25.1171374
  22.4894667  15.2880323  24.4549990  21.4366341  15.4427385  25.5313778
  63.2200146  24.6002150  48.6848354  62.5475645  24.0414262  48.2952261
  64.0191317  24.0745902  48.6478949  30.4661679  71.6650915  15.0761580
  31.3424253  71.2917566  14.9811542  30.3562403  72.2180223  14.3025851
   3.2048017  21.4426708  48.3678293   3.5981858  20.5731940  48.4419298
   2.4561235  21.4184022  48.9637518  70.9694052  42.1257114  18.7147987
  71.4861202  42.8292322  19.1076064  71.4636755  41.3290453  18.9078033
  20.4188299  47.1859503  11.5355206  21.3710546  47.0886087  11.5306211
  20.0995898  46.4441299  11.0216904  22.8389907  18.4932482   6.1019260
  23.5927987  18.6573911   6.6685516  22.7467179  17.5405240   6.0960639
  42.7530241  71.2847710  15.9369314  42.3155928  70.5294609  16.3298535
  43.4123468  71.5417767  16.5815055  30.7924485  15.7478464  30.6787682
  30.5974865  15.5478275  29.7632265  29.9633479  16.0656416  31.0363030
  41.3412428  67.4644518  38.3533573  41.0192728  67.8039503  39.1884065
  40.5878639  67.5204611  37.7655554  82.5071239  59.8442125  21.6229367
  81.5782356  59.6149063  21.5943980  82.9631138  59.0140438  21.4846516
  34.8946118  29.3797183  49.8525572  35.5405021  29.6245575  49.1899014
  34.6459174  30.2082825  50.2622700  13.8555980  40.5519390   0.7865366
  14.3107045  40.2112198   0.0164586  13.3474422  39.8091698   1.1125730
   4.4141525  25.3830051   0.8324336   5.0879335  25.0377274   0.2467428
   4.4716725  26.3329697   0.7300150  48.5336542  49.8683548  19.1951108
  49.4222260  49.5806170  18.9856219  47.9668093  49.2573118  18.7244296
  37.2946024  45.4667091  60.2088833  38.0564952  45.1071739  60.6632853
  36.7927313  45.9074306  60.8945370   8.2651931   7.3333049  54.9589682
   9.1681683   7.0158982  54.9480057   7.8851175   7.0024508  54.1451454
  59.5680332   2.5857881  55.3499746  58.7199593   2.2628157  55.6544256
  60.1630735   1.8455577  55.4692221  59.5255947  27.8379774  43.8653278
  60.4614830  27.9320955  44.0427637  59.4539070  27.0098853  43.3906126
  13.9295805  36.8162298  11.1779356  13.7966704  36.8673301  12.1244848
  14.2669511  35.9326220  11.0308027  80.7449245  23.9228034  29.4105697
  81.2364769  24.2288399  28.6483693  80.1604557  23.2487345  29.0637755
  81.7905998   9.1907972  35.7496810  81.1501026   9.4439125  35.0849056
  82.1024704   8.3311856  35.4667687  79.7936773  12.6197708  19.2251480
  80.6364441  12.7942550  18.8061893  79.1509914  13.0427957  18.6557281
  52.5512743  68.0153179  34.4945264  52.8684187  68.7766838  34.0087533
  51.7102480  67.8054667  34.0884900  60.9270477  48.6881018   7.6032931
  60.3355932  48.3904696   8.2945442  61.2956572  49.5052576   7.9388726
  28.8255572  71.1987782  12.1135461  29.2050886  71.7472982  11.4270234
  28.0342841  71.6652870  12.3827839  13.2215655  44.0411615  28.5057926
  12.3321688  44.3790102  28.6109781  13.6853611  44.3400049  29.2879796
  27.7297974  28.9516068  16.2097609  26.9492984  28.9883852  15.6568611
  27.4732018  28.4017444  16.9500601  25.9392118  38.0605340  15.1244462
  26.1395121  37.8917098  14.2037892  25.1111960  37.6051211  15.2768302
  58.0170441  38.8806868  11.8117476  58.3425522  38.1807733  12.3777843
  57.7768469  38.4381723  10.9976709  32.7789998  73.7171555  62.8054190
  32.4703002  72.9040241  63.2051182  32.8509140  73.5134220  61.8729162
   0.6655613  51.0579300  25.8419800   0.6480104  50.5307961  25.0431943
   0.6862991  50.4162788  26.5519714   6.4804310  43.9284801  51.8829870
   5.5384350  44.0760612  51.7987490   6.8687415  44.7979307  51.7855024
   3.7716159  24.2281389  39.8597431   3.3378989  25.0153613  40.1889896
   4.5656174  24.1529942  40.3890324  37.8642797  61.2381506  60.0505114
  38.3280849  62.0322657  59.7850037  37.9230595  60.6606531  59.2894125
  17.6349425  12.1260607  10.1073289  18.4878087  12.1991301  10.5357122
  17.0008945  12.2263050  10.8173752   1.8667760  53.0032682  11.4710939
   1.6927680  53.0037451  12.4123442   2.0375869  53.9208269  11.2586355
  29.3193889  33.5501480  60.7886982  30.2380967  33.5717535  61.0565424
  28.8331127  33.7718987  61.5827990   7.7835131  51.6752148  43.7123442
   6.9496047  51.7312765  43.2457781   7.8110719  50.7787514  44.0467548
  16.7196453  37.1949172  19.0585709  15.9720576  36.6407609  19.2827439
  16.5391934  38.0281305  19.4937992  46.3064909  36.0729527  51.0948181
  46.0690784  35.9154701  52.0086384  46.8447971  35.3190327  50.8538628
  29.9867964  39.6132636  32.0423102  30.3836465  38.9641476  31.4614606
  30.6086588  39.7001481  32.7647853  68.2588148  39.7969770  41.9263601
  68.2962322  39.0251112  42.4912071  67.5410557  40.3202438  42.2830677
  28.6523390  64.6076155   0.0840591  28.0727863  65.3477812  -0.0962290
  28.0612040  63.8919067   0.3176336  26.5343595  51.4842272  17.6085711
  27.0536780  50.6849813  17.6965725  26.4388514  51.6049910  16.6638350
  65.8176851  71.5223980  57.9200554  65.1318216  70.9256792  57.6204872
  66.3782740  71.6467333  57.1542120  31.8063331  10.8654559  22.9104185
  31.6191030   9.9609715  22.6592517  31.0345554  11.1413920  23.4048343
  44.3731546  21.5765595   8.5456192  43.5302401  21.2119293   8.8153839
  44.4832611  22.3548722   9.0918219  71.3744736  43.8287210  58.5875559
  70.4343033  44.0008688  58.5358667  71.5228081  43.1193209  57.9622746
  77.0920897  24.0669155  15.5214453  78.0263710  24.2742276  15.5021954
  76.8198967  24.1025710  14.6044540  62.8730679  56.6174221  51.6822958
  63.0292845  56.7054987  52.6225471  62.7808332  57.5173521  51.3694906
  18.9122629  21.8066430  18.3364308  19.1746736  20.9514284  17.9958677
  17.9938400  21.8944550  18.0814397  45.5274963  63.3336973  65.8761597
  44.9338484  62.6166821  65.6532192  46.3013649  63.1813574  65.3338099
  68.5546589  43.6507893  53.3338547  67.9068851  43.8372755  54.0134430
  68.1105900  43.8669443  52.5139093  60.8084631  77.5169992  65.8811045
  60.5645275  78.0802917  66.6155624  60.1230431  76.8494272  65.8533001
  53.5543013  69.3516684  28.8444686  54.3757200  68.8812971  28.9867878
  52.9179859  68.6662245  28.6407375  17.2522879  30.3568840  46.2856388
  16.9383240  30.9806561  45.6309891  17.4879122  30.8984804  47.0388937
  25.9925270  29.5278192  45.4043293  26.9090223  29.7940683  45.4776812
  25.5007672  30.3479767  45.4461575   1.1833754  42.4964952   1.8313849
   0.3990657  42.4054289   2.3724920   1.9057536  42.2677279   2.4162492
  70.1700497  27.5152755   4.7047436  69.9075747  27.3021770   3.8092396
  70.8832598  28.1453252   4.6017826  82.5990582  35.7645082  63.7149048
  82.4073029  36.4028287  64.4019365  82.2132874  36.1408758  62.9238558
  37.3256969   6.0662186  44.9974489  36.7524910   5.4645514  44.5224047
  36.7380214   6.5468550  45.5804205  73.2720280   4.1414151   8.6759710
  73.2171440   3.2751569   8.2724655  73.3672667   4.7437200   7.9381436
  78.5262299  61.8458796  61.8335533  78.0434084  61.4741993  61.0953331
  78.0117512  62.6090956  62.0963335  80.5126762   8.4013313  31.3616085
  81.3253021   8.8282150  31.6329813  80.6878662   7.4658579  31.4637423
  65.1001549  76.8846941  56.3341713  64.6958685  76.3489437  55.6517124
  65.5847931  77.5569868  55.8552361  11.9189751  19.7411799  30.1243305
  12.1232665  19.9044824  31.0451078  11.0225594  19.4056475  30.1337385
  35.1427412  17.6540220  29.4373727  34.4550347  17.1634245  29.8874927
  35.9527588  17.3812258  29.8682833  66.2372637  42.4222422  42.6464748
  65.4390049  42.1627522  43.1065655  65.9573460  43.1232977  42.0579147
  78.4286547  -0.1109144  41.2809038  77.5293350  -0.0029969  40.9713697
  78.8258886   0.7526863  41.1685276  21.6439295  61.1861181  29.3717599
  22.3287678  61.6114807  28.8557220  21.8678832  60.2558327  29.3464279
  57.2233486  31.6571617  44.8498631  57.8035402  31.4072776  44.1307211
  57.7022839  31.4100242  45.6409264  58.8108730  25.6686735  15.5874336
  59.1948366  24.9773502  15.0481033  59.3407583  25.6727099  16.3845778
  38.1516910  34.6114373  15.2132177  38.3137155  33.7687755  15.6373644
  38.9939952  34.8508978  14.8266757  37.5001383  56.5757370   9.3982148
  37.9148030  57.4340057   9.4857049  36.7739177  56.5959501  10.0214541
  69.7944689  18.1778276  52.5865936  69.1643238  17.7117372  53.1360579
  69.7204542  17.7589071  51.7291212   5.7217669  22.1747994  22.0696592
   4.9857742  22.7617383  21.8963099   5.9660691  22.3584437  22.9767537
  29.3281865  41.7543316  18.6052871  30.0424504  42.0822430  18.0589032
  29.2378712  42.4077177  19.2989457  13.3835316  73.1931973   9.6848607
  12.6293266  73.0526018   9.1124636  14.1033244  72.7369118   9.2490494
   5.2689588  25.1505923  24.1943288   4.4749856  25.6241393  23.9461541
   5.9852588  25.7130623  23.8997579  78.6975145  45.8217001  28.1293607
  79.0810204  45.4540920  27.3331070  79.0868378  45.3121805  28.8400269
   3.6041242  11.6402102   8.2391161   2.8700119  12.2130167   8.0172968
   4.0970397  12.1273756   8.8993704  31.8217254  26.1621642   8.3599734
  31.9069290  25.2116728   8.4344125  31.8810058  26.4792585   9.2611772
  20.6639004  18.8547504  21.0795808  19.9208963  19.4042742  20.8301806
  21.3485765  19.4759262  21.3277578   8.2671732  16.4775288  41.0253286
   8.9665234  15.9806681  40.6007433   8.0855656  17.1984982  40.4224586
  15.9129071  18.1298232  63.3036661  16.6594589  17.5365210  63.3866358
  16.1920762  18.9297950  63.7490225  79.5760584  13.6536682  43.1460333
  79.1634512  13.9416778  42.3317623  78.8496017  13.5583925  43.7619972
  38.4545898  60.5407238  18.7175059  38.3236051  60.6191874  17.7725625
  39.4014931  60.4464579  18.8210392  70.7888937  64.4465590  17.8943157
  70.6431580  64.2326641  18.8158596  71.6435528  64.8773766  17.8806913
  71.4423370  52.0608950  36.4811063  71.7607450  51.9766617  35.5823565
  71.2148857  51.1676884  36.7393255  42.8479862   0.9934573  64.6228266
  42.9069042   0.0944437  64.9461460  41.9286060   1.1004867  64.3788719
  14.8205388  45.4567719  42.0307541  14.0897357  45.8964014  42.4653625
  15.3354621  45.0838614  42.7463102  32.9767513  38.7885690   2.0730621
  32.9263735  37.9906845   1.5466864  32.4746013  39.4349742   1.5768375
  36.5719938  20.4170585  17.7990389  36.6251230  21.0959840  18.4716976
  37.4747920  20.3028917  17.5021338  58.6873484  23.1519246  27.0238614
  59.6246767  23.3357811  26.9618487  58.3425045  23.8505912  27.5799012
   9.3270028  18.2870054  13.7092984  10.2001393  18.4996116  14.0389383
   8.7536222  18.9392090  14.1119123  18.3530295  57.5174904  46.2327003
  18.2036340  58.4382105  46.4476204  17.8059959  57.3593235  45.4633045
  41.8812370  51.5622854  44.8209238  42.7945471  51.3463736  45.0092793
  41.7959166  51.4385271  43.8755989  73.7757921  16.0090744  58.6330175
  73.4053230  15.1603806  58.3907270  74.3120861  15.8249462  59.4041967
  58.9389324  19.9525261  13.6821532  59.8608875  19.6994328  13.6355364
  58.7578917  20.0262904  14.6191788  21.4315510   5.7160068  41.8482494
  21.1706161   6.5152657  42.3057747  21.2718892   5.9062159  40.9238243
  34.4742727  30.6985235  53.4782982  34.2855597  31.1546803  52.6582146
  34.1221738  29.8178720  53.3490324  52.1556807  63.8701677  42.7426720
  52.4489117  63.6891270  43.6356878  51.6278315  63.1079340  42.5047445
  36.9821143  44.1096830  11.8389058  36.7918324  44.3159151  12.7540529
  37.4938917  44.8558807  11.5266418  65.8070993  68.7842417  64.8644114
  66.3244867  68.2904005  65.5005455  66.2855196  68.6888504  64.0408516
  10.7362008  29.0910745  25.1507258  10.0208139  29.5740390  25.5644870
  11.5274644  29.4292617  25.5699682  36.4743614  26.7686868   3.2226279
  35.7598758  26.3861752   2.7132878  36.8698430  26.0246420   3.6767465
  12.6038134  13.3075857   8.6576152  13.4513259  13.7051117   8.4577936
  12.5643170  12.5330544   8.0965704  19.7097814  17.2933614   0.7317211
  18.8005459  17.4808931   0.4985810  19.7548819  16.3380218   0.7707436
  36.6043544  64.4511557  57.1353436  36.9322395  65.3461123  57.2235155
  37.3910928  63.9179897  57.0212746  70.8575916  62.8563213  12.6879621
  71.5602541  62.2083712  12.6363897  71.0971260  63.4108019  13.4305286
  36.7646527  17.9947436   9.1123056  35.9872127  18.2955003   8.6418134
  36.4747930  17.9030681  10.0199449  25.0975251  75.4266739  34.2146587
  25.2518153  76.2089539  34.7442508  25.9534812  75.0017071  34.1601157
  28.1607572  31.7040589   0.0989638  28.7409775  32.4438956  -0.0805463
  28.7510244  30.9887745   0.3359948  71.2019157  37.0082617  26.3684940
  72.0679951  37.4097991  26.4385438  71.2625408  36.2139559  26.8991876
  16.7212975  17.2960651  36.3531017  16.2382972  17.7512693  37.0428348
  17.1475232  16.5655386  36.8013144  17.6654553  58.0060863   0.8492418
  17.4048567  57.1008444   0.6793505  18.0086684  57.9928589   1.7426968
  79.2516518  52.8019142   2.5461686  79.8608494  52.5090170   1.8684337
  79.6391487  53.6094427   2.8837648  13.4233463  16.9284284  38.2599926
  13.4565377  16.0310495  38.5914159  13.9611840  17.4300611  38.8726330
  73.6094522  38.0513740  10.0970888  72.9898548  38.7408638  10.3356910
  74.2253542  38.0190134  10.8291090   1.5943490  47.6037359  29.8475122
   1.1359994  47.2641993  30.6161880   2.3987639  47.0870590  29.8006916
  37.7019334  29.8943877  48.7537384  37.3563266  30.6925797  49.1533375
  38.6004424  29.8337984  49.0781450  56.8527365   5.5713367  34.7201586
  56.1690426   5.8729815  34.1219926  56.3861227   5.3540462  35.5271840
  51.3539791  42.5965786   0.7248582  50.4677773  42.5762367   0.3636596
  51.3931274  41.8372154   1.3062946  35.3213191   7.7603483  61.1119223
  35.9024429   8.4783959  61.3627911  35.3301525   7.1705413  61.8657684
  43.3400917  36.4727759  18.2482576  42.5617838  36.5793610  18.7951684
  43.8615465  35.8095360  18.7003994  33.3686781  19.9526668  30.1374316
  33.6227202  20.6998420  29.5957470  34.0852189  19.3266213  30.0331759
  44.4487619  76.8379927  62.4151611  43.9654875  76.0453081  62.1820831
  43.8097620  77.3811150  62.8766012  20.7581639  31.8406487  33.6047244
  20.5126095  32.5055170  32.9613853  20.2974677  32.0983195  34.4032192
  54.2118883  37.6701188   9.3571585  53.7374830  37.7564812   8.5302871
  53.9431047  36.8176389   9.6995944  25.5891132  33.3587003   4.5587739
  26.3278461  32.8006840   4.3156272  25.1339698  33.5265589   3.7336069
  51.5137243  62.2547674  65.9121847  50.6890154  62.6118660  66.2416792
  51.4706516  61.3214207  66.1201096  23.8616252  18.3929300  34.6847153
  23.3769226  19.1912103  34.4748473  23.9610219  17.9452062  33.8445377
   3.9113057  55.8327913  17.8089893   3.3604130  55.2577782  17.2778523
   3.4793141  55.8566809  18.6628306  22.4575543   9.2755133   4.1922554
  21.7914176   9.5300359   3.5537305  23.0722046   8.7359190   3.6949879
  23.4142017  36.8768430  20.5656290  23.2116318  36.0561943  20.1164794
  23.1536818  37.5591493  19.9469066   5.7556033  45.4816008  34.1247368
   6.3110602  45.2617407  33.3768320   4.8734224  45.5422735  33.7582564
   2.9603642  61.2358046   6.9426495   3.8945609  61.1201286   6.7690766
   2.8060246  62.1710539   6.8095237  29.9883676  62.8253508  42.1865320
  30.0622702  62.2547913  41.4215279  30.8900404  62.9432249  42.4854088
  72.6973343  14.2602408  61.3864708  72.1845055  13.6824512  60.8213186
  73.5803032  13.8910949  61.3683128  67.5874949  21.5011954  31.5585804
  67.0937061  21.9119525  30.8488750  67.0302010  20.7804942  31.8522477
  73.0710030  39.2763376  27.5783348  74.0100718  39.3420053  27.7517319
  72.9159307  39.8926854  26.8625832  17.3616958  44.9203062  31.8113470
  17.0261729  44.1299152  32.2343612  18.2312202  44.6728992  31.4967847
  31.6499591  16.0364103   6.6221553  31.1109924  16.1842322   7.3992634
  31.3476110  16.6912603   5.9928781  42.1589279  55.4256964   8.8698190
  41.3312006  55.3782940   8.3914357  41.9246817  55.2197361   9.7747725
  38.1720638  49.6963024   3.6850706  37.3771882  49.2564917   3.3834630
  38.7435246  49.7112656   2.9173189   8.9116210  49.4354439  44.8123074
   8.7200296  49.7564840  45.6934786   9.8124301  49.1159725  44.8643875
  23.6298275  13.2112980  56.3187504  24.3574142  12.5964797  56.2246752
  23.6751962  13.4983253  57.2307730  57.3620939   9.2909253  61.7215824
  57.9463530   8.5661423  61.9442034  57.3965693   9.3416280  60.7663488
  54.6653175  52.6066494  11.2359262  55.6024933  52.7867508  11.3100433
  54.4185352  52.2642899  12.0950663  69.9308205  15.5245376  59.4949818
  70.8060837  15.7812977  59.7851896  69.5776844  16.3092566  59.0757656
  29.9399281  42.2214508   9.5079553  29.9703407  42.7193260  10.3249168
  29.1107512  42.4759626   9.1030866  12.2955430  36.0080099  48.6109161
  12.9900908  36.6317391  48.8225651  11.5457690  36.5549064  48.3764458
  28.1092215  34.1089058  16.1058652  27.8477764  33.7669611  16.9608223
  28.3945155  35.0051808  16.2834227  21.8303013  19.4452095   3.7015927
  22.0719481  19.1167390   4.5675874  22.4793363  20.1229620   3.5128206
  24.4525623  10.8428776  14.5135415  24.4652176  10.9389925  15.4658186
  24.5830035  11.7310810  14.1814101  35.8079839  52.0964241  25.2156687
  35.5782914  51.3784027  24.6258163  35.5140376  51.8016624  26.0776114
  23.7618399  18.8493550  29.7708917  23.0680609  18.7348354  30.4203439
  23.3023739  18.8748837  28.9315629  33.3256721  40.0026608  29.4257069
  32.9270530  40.8305502  29.6938944  33.8991618  39.7657633  30.1545572
  81.1770725  24.6923900   2.3551922  81.2660217  23.9900970   1.7109075
  81.9118595  24.5619822   2.9546186  55.3785896  16.5350723   3.3167708
  55.4539299  17.4631441   3.0948752  55.8691025  16.4435267   4.1336235
  70.7897091  12.4274743  65.3914642  71.6995811  12.6852500  65.5395079
  70.7906199  12.0367277  64.5176506  13.4364629  63.8297176  30.6716728
  13.5688150  64.0005350  31.6041613  13.5732472  62.8868723  30.5791140
  76.4207935   0.1175899  21.3532686  76.2058735   1.0158560  21.1019564
  77.2458410   0.1938606  21.8325567   9.6028507   9.8818260  15.3521585
   9.8847985   9.1106540  14.8601913  10.2640402   9.9841547  16.0366940
  27.1982813  33.7856150  33.4002018  27.7017736  34.1172910  34.1436529
  27.8345609  33.2952833  32.8796697  66.0937691  71.0678768  60.7366800
  66.1184454  71.2703037  59.8014545  65.2130699  71.3209677  61.0133600
   8.8497442  53.9461374  27.5866389   8.1125534  54.2535734  28.1141496
   9.1264284  53.1343937  28.0117822  48.2914114   8.1502938  62.1951818
  48.8375330   7.7687013  62.8824711  47.3941088   8.0173445  62.5007963
  65.8594131  19.6925128  32.6098561  66.1714363  19.2699981  33.4100795
  65.1717186  20.2886963  32.9062867  71.0474968  42.7194738  37.0978212
  71.7063284  42.9597616  37.7493072  71.5497112  42.5485373  36.3010836
  37.2802711  52.0172596   0.3689688  36.9910598  51.2652779  -0.1478557
  36.7127919  52.7344990   0.0865363   1.6520078  48.6995792   5.1952374
   2.2709063  49.4015551   4.9941599   2.1963137  47.9920721   5.5407715
  30.9421206  38.5619402  34.7499251  31.3054228  37.7261496  35.0426722
  31.2457395  39.1958213  35.3997278  31.5010619  50.2909184  24.1177225
  31.0394621  51.1281013  24.0699339  31.1730814  49.7934675  23.3685875
  34.9065042  61.1669683   8.7900633  35.2847314  60.5713272   8.1432354
  34.5018220  60.5907583   9.4384813   7.2961468  55.1275349  13.3014810
   7.3349911  54.1817904  13.4439421   7.6590925  55.2527761  12.4246585
  70.3378773  69.8388624  58.0236435  70.6909895  68.9599657  58.1617975
  71.1107302  70.3935480  57.9175615  18.5257375  25.8601642  15.8606160
  19.2486441  25.3818035  16.2665832  17.7874255  25.7284594  16.4554107
  82.0121288  67.3944473   9.8573685  81.1874390  67.6493692  10.2710533
  82.5540352  68.1824303   9.8979092  51.9764996  65.6024599  31.3505626
  51.8679190  65.1758003  30.5006194  52.5156498  66.3714027  31.1654234
  12.4927747   3.6430690  12.0030046  12.6562130   4.0756348  11.1649084
  13.2961822   3.1540409  12.1808255  41.4064932  68.8952446  61.8449736
  40.6448078  68.7837458  62.4138641  42.1203279  68.4618521  62.3127794
   6.0896498  15.0811505  15.8012760   5.4879749  14.3395722  15.8666992
   5.5696809  15.7766533  15.3986108   3.4591770  66.3143730  44.1882467
   4.0029305  65.5269480  44.2111397   3.8775024  66.9124031  44.8076010
  62.9588509  49.4438696  20.9202409  62.2082567  49.7540951  20.4136801
  63.0794811  48.5369968  20.6386971  25.7104039  23.7446022  60.4555130
  25.8135080  24.0049243  61.3708448  26.6059184  23.6610627  60.1279306
  29.3585920  61.4768934  54.6023703  29.6417689  61.4507627  53.6883926
  29.8498464  60.7727432  55.0255442  35.5386424  72.1002769  15.3388333
  35.8502984  72.3398542  16.2115908  36.2529421  72.3498631  14.7525632
  36.2222242  40.2153158  19.3834031  36.5624404  39.9085307  18.5429454
  36.7588925  39.7670341  20.0370574  24.1817307  64.3151140   4.0559286
  24.1170764  63.3752632   3.8864312  23.2740521  64.6185875   4.0720165
  20.3584170  33.7896299  31.7071986  20.0270295  33.4385610  30.8806610
  20.8366251  34.5801854  31.4570570  17.5473106  77.1767235  36.1367369
  16.8368590  76.5361881  36.1020494  18.2528901  76.7268801  36.6015267
  54.1689062  20.3615332  20.7148790  55.0930786  20.3401470  20.4665184
  53.7727976  19.6401024  20.2261400  59.6855974  22.2204375   3.9867780
  58.9422464  22.6121879   3.5283110  60.2599525  21.9072890   3.2880053
  29.5778179  43.9979887  32.5940943  29.1605306  43.1636763  32.8086281
  29.0946174  44.3186378  31.8325615  14.3963468  45.7242632   2.4631274
  13.4938145  46.0100842   2.6044506  14.4147146  44.8221588   2.7826622
  54.4138193  52.7625656  38.1174970  53.7779903  52.0573568  38.2384777
  54.8266697  52.5709724  37.2754288  11.4978755  66.6740465  39.8031640
  10.8722436  66.7417717  39.0818954  11.1846900  65.9339666  40.3231907
  76.3596487  11.9298923   8.3979028  77.0376062  12.3146784   8.9533734
  76.3078070  11.0169435   8.6808640  49.2784262  46.0794020  21.9448256
  49.6685314  45.2140951  22.0684886  48.5456038  46.1019135  22.5602126
  13.5477412  19.9393058  39.4202733  13.7849331  20.1676011  38.5214663
  14.1861975  20.4034567  39.9617243   1.2854569  21.0785580  37.0497704
   1.5856004  20.9225678  36.1543298   1.8616268  21.7685175  37.3787332
  50.7127762  47.6689768  49.6026182  51.1259031  47.0606375  48.9898539
  50.1072168  47.1261168  50.1074314  27.5576186  52.2538090  30.4349732
  27.9046297  51.5306425  30.9573197  26.9647026  52.7149057  31.0283303
  31.7403412  27.9310131  24.0202999  32.0065713  27.3246932  24.7114801
  30.8039594  28.0649972  24.1668153  33.0123901  42.7136707   7.3242462
  32.9878902  43.5437107   7.8003424  32.6453662  42.9197359   6.4645576
  27.4334335   2.8337243  15.5940259  28.0185771   2.1762037  15.2178526
  26.6276765   2.3546238  15.7875443   5.5643970  44.6798468  10.4638743
   5.3429216  44.6212912  11.3932574   5.0685036  43.9708948  10.0543535
  25.4734659  28.0877233   8.5569239  25.6114340  28.4254599   9.4418699
  25.8141685  27.1936798   8.5859472  47.5370312  32.7755189  11.7562687
  47.2300100  33.1863093  10.9480488  47.5610495  33.4892917  12.3935950
  17.1555495  50.1235867  21.3456535  17.2697067  51.0156536  21.6734099
  17.4119675  49.5643473  22.0789576  10.3476703  31.9935942  24.2765784
  11.0678351  32.5148463  24.6313906  10.6715524  31.6814160  23.4316659
  30.3972125  40.3381395   6.5390497  30.1821446  40.1129150   5.6339246
  29.6992087  40.9345675   6.8097818  81.6090393  18.7396634  25.9748816
  82.2068310  19.3848407  26.3525248  80.8054638  19.2301488  25.8018661
  35.4442954  36.1946988  35.5986714  35.1898265  35.3804922  35.1644516
  36.2540579  35.9769917  36.0603237  13.4804547  64.6147728  16.0406518
  13.4356904  65.5277777  15.7566643  13.1841207  64.1129494  15.2813172
  81.2099838  31.0139084  28.8406277  81.8569088  30.6807876  29.4625163
  80.9074020  31.8357515  29.2269588  29.7601223  52.8180695  23.7907529
  28.8489127  52.8603888  23.5006833  30.2678180  53.0887175  23.0257511
  65.9423876  17.0608783  53.5342073  66.8942070  17.1426010  53.5940933
  65.6408930  17.9386413  53.2999706  19.7168493  23.3918023  34.7698212
  19.7818422  22.8423452  33.9887285  20.5942631  23.7587142  34.8782372
  64.4958814  68.0754015  67.5455010  65.4064806  67.7830026  67.5848143
  64.4037946  68.4552047  66.6717154  27.8791809  48.8231945  26.0510588
  27.1633720  48.3111715  26.4274621  28.5786963  48.1861782  25.9057188
  21.0587311  51.6465569   9.3446559  20.9683681  51.8333006   8.4102076
  20.7870555  52.4556684   9.7779673  21.4424443   8.0934829  43.3297873
  21.3517094   7.8086609  44.2391157  22.0751548   8.8108629  43.3655024
  41.5375805  33.1296110  31.7764163  41.9296980  33.3993292  32.6069140
  41.5656376  32.1730590  31.7977738  44.2295837  36.2836671  15.6103587
  43.7010431  36.9366503  15.1515639  43.8807440  36.2764812  16.5017021
   4.7086707  11.4657247  65.3619385   5.1066726  12.1253490  64.7938538
   5.2537787  11.4668882  66.1487579  15.2084816  14.9770296   1.5168881
  15.1270247  14.1039467   1.1330628  15.9592474  14.9101901   2.1069014
   5.2348983  23.8293052  12.3494554   4.5151865  23.3508134  12.7609062
   5.3081650  24.6363330  12.8589332  23.2537079  47.2501945  22.3936296
  23.6926532  47.1254444  23.2350540  22.5636315  47.8880548  22.5757241
  47.2919559  15.1638198  53.6218834  48.0691481  15.4880583  53.1668282
  47.5955534  14.3860734  54.0900421  25.5311942  53.6722851  19.0367568
  25.8317065  52.9372597  18.5022795  24.5764971  53.6047554  19.0217781
  27.7621603  50.8094120   5.5968833  28.7035942  50.9822321   5.6050950
  27.4532819  51.2041855   4.7814196  34.1583443  17.0566571  61.6829252
  33.5271263  17.5018513  62.2482538  33.6981106  16.9455469  60.8510160
  74.0686846  33.1964135  44.5080137  74.9118662  32.9459310  44.1304779
  74.2573738  33.9885759  45.0111103  48.4133577  76.9773054  67.1306562
  49.2051792  77.5108385  67.1983910  47.6968193  77.6119328  67.1235228
  10.1324892  19.2429495  11.4279902   9.5375252  18.7676668  10.8480275
   9.8616093  18.9881444  12.3099935  17.4343789  53.2397556  58.0890322
  17.4057305  52.2858620  58.1632042  17.4420488  53.4065771  57.1465111
  60.6332254  59.3370104  40.4596663  60.8537149  60.1439762  39.9944496
  61.4539385  58.8452435  40.4884291  43.8760233  66.5735292  66.9198561
  44.6176910  65.9729481  66.9937992  44.0236092  67.0359516  66.0948610
  23.4046626  52.5657463  58.9690351  24.3509722  52.5987434  58.8288927
  23.1189060  53.4758425  58.8896608  80.8229160  52.6977062  17.4254978
  81.2091351  53.3410215  16.8311822  81.0883045  52.9881477  18.2981062
  16.6694248  49.7173214  13.1617892  17.1168268  50.4890728  12.8147089
  16.6978526  49.0820265  12.4463677  17.9523265  65.5375719  54.4867659
  18.1090832  64.6136045  54.6815491  18.7033045  65.9932709  54.8670340
  39.7483993  10.5349171  57.1249485  39.0540814  10.2076256  57.6968145
  40.3483868  10.9921372  57.7141809  26.7936015  55.1303625  14.1504145
  26.9930100  55.9088564  13.6304009  26.5627837  54.4632053  13.5039973
  31.1724472  21.9914103  52.2054195  31.5964270  21.4409232  51.5470600
  30.7892513  22.7115941  51.7046928  21.5214658  37.6053286  53.2095861
  21.3193083  37.3779130  52.3020363  21.8878555  38.4882045  53.1593561
  31.3147306  58.1754875   6.6383475  32.2143173  57.8771305   6.7723542
  31.1582398  58.7929630   7.3528159  55.6462288  41.7930555   3.1517896
  56.0973454  42.4992228   3.6144534  54.7160864  41.9900465   3.2625294
   7.8738523  33.3857703  27.5531793   7.1119720  33.2239532  26.9967771
   7.5034833  33.6388803  28.3987546  30.1833367  44.7186375  25.8361149
  29.2987871  44.5306158  26.1498809  30.5514073  45.3067970  26.4955258
  26.3975954  50.6491709   7.8688014  26.8980622  50.7339621   7.0572746
  25.4964495  50.5042267   7.5804293  64.2740011  54.9291229  60.3560257
  63.3543396  54.6663618  60.3935957  64.4458818  55.3223801  61.2116194
  65.2485180  57.5267458  53.4227133  65.5345392  58.2674456  53.9573050
  65.3827381  56.7616796  53.9820814   2.4529788  65.0541830  27.3866129
   2.3305567  65.7023478  26.6929793   1.6621178  64.5159531  27.3537683
  40.8949423  36.9980717  19.5320845  41.3660431  36.5700412  20.2469897
  40.0230598  36.6034317  19.5496619  69.1649628  51.4598227   9.4771910
  69.2536211  52.3637724   9.1751128  68.5986233  51.0444212   8.8268614
  34.4068980  50.0350571  12.7660298  34.0869093  49.3772745  13.3834124
  35.3436780  49.8545742  12.6879263   6.4883441  75.1597929  54.7218657
   7.3912001  75.2789450  55.0166273   5.9549695  75.4987907  55.4407692
  68.4053040  57.1717596  62.2317219  68.8707495  56.5881538  62.8308868
  68.8592005  57.0679617  61.3953972  39.6305060  26.9484663  45.8186483
  40.3651667  26.7118549  46.3847971  40.0228071  27.0650530  44.9533558
  24.7519851  51.1708164  65.1675224  25.2223086  51.9911337  65.3162050
  24.9817348  50.9218788  64.2722702  17.9329681  46.8273163   8.7478924
  18.8884640  46.7792416   8.7170893  17.6808310  47.1412563   7.8795028
  81.0635948   5.5002952  58.4159184  81.7103767   5.7429773  57.7533436
  80.6793118   4.6868977  58.0888939  54.9241352  29.1286778  21.1195850
  54.1711092  28.6544824  21.4721751  54.5488882  29.7290754  20.4754210
   7.3808670  38.9203048  14.1621280   7.9391158  39.4974494  13.6410773
   7.8350216  38.0777311  14.1554213  37.2903466  23.0246830   9.5854324
  36.6628098  22.9236770  10.3011334  38.0771017  23.3737898  10.0042081
  17.5563967  39.7198606  29.5827246  17.6623654  40.6711245  29.5724940
  17.8903449  39.4508553  30.4384947  23.9802527  66.5796900  16.5112484
  23.6357355  67.4333191  16.2488294  24.3223357  66.2003279  15.7017457
  24.4343209  44.7023296   5.0047702  23.5504150  45.0611019   5.0836736
  24.6925759  44.8976803   4.1040075  26.3245487  30.0254726   2.7714264
  25.5980062  30.4466224   3.2307759  26.0000992  29.1495776   2.5622067
  50.2608109  34.4931507  15.8539855  51.0447550  34.4285107  16.3994062
  50.0699186  33.5899448  15.6009793  15.5367804  63.5517836  21.8161583
  14.6736085  63.3299494  21.4669371  15.4998064  63.2837200  22.7343154
  23.7628126  11.1868000  39.7078395  24.6497798  11.1589968  40.0666523
  23.6168957  12.1099532  39.5011282  70.2823973  50.0089550  51.7086935
  71.1286020  49.6897411  52.0221806  70.1909876  49.6273994  50.8355999
  29.6878028  15.5687976  20.1797366  29.2959809  16.4419532  20.1972461
  29.0650582  15.0367129  19.6844518  54.4322634  30.5168700   2.3551264
  54.7301960  31.4264536   2.3438555  55.2262640  30.0067282   2.5149703
  46.0675764   8.5729843  35.0755143  46.4103937   8.4290814  34.1934705
  46.5101242   9.3659836  35.3780627  22.6202011  21.2957168  13.5331261
  22.6927066  20.3917933  13.8395536  21.7362285  21.5635777  13.7842751
  50.2743149  72.6427746  29.1447711  50.1096249  71.9674397  29.8028207
  49.6015549  73.3041334  29.3067336  41.7263412  31.6373968  15.3344798
  42.0347023  30.8679318  15.8130920  42.4222803  31.8218994  14.7037172
  69.3321180  23.3389807  28.6581182  68.6809731  23.9294100  29.0371156
  69.9678373  23.2010460  29.3603039  21.4698339  57.3343897  19.2520559
  20.6469703  57.8191519  19.3163192  21.9314623  57.5371838  20.0656915
  30.1722956  70.1305914  43.8598299  30.6834435  70.6680965  43.2548094
  29.8738360  70.7438564  44.5314407  77.8169680  60.7049799  24.4161844
  77.3203516  60.4509401  23.6383247  78.6398888  61.0523129  24.0720963
  25.8527160  62.3769855  49.6083975  26.6841722  62.7964115  49.3870449
  25.2199578  62.7661610  49.0047550   3.5849836  59.4553423   3.4511122
   3.8019910  60.2704906   3.9035225   3.2458252  58.8826084   4.1389903
  49.1170216  58.7992287  60.8709383  49.4069004  57.8908253  60.7872438
  48.2536650  58.7384319  61.2797832  52.9087496  70.5028009  44.1847324
  53.0510759  71.4441395  44.2840195  52.7357340  70.3839159  43.2508326
  39.4974065  63.5487318  35.9160304  39.2432547  62.8707314  35.2899671
  38.9500213  63.3832550  36.6836381   4.4905895  65.8481216  65.9164476
   3.8090691  65.8608294  66.5884590   5.2611405  65.4977751  66.3633680
  18.9647853  39.6025801  13.5967124  19.6317112  40.1211357  14.0467608
  19.4564176  38.9065671  13.1607151  66.5170383  51.0000801  16.5985143
  67.0869446  51.0141850  15.8295953  67.1116066  50.8561325  17.3347175
  29.4601107  75.6619310  36.5424085  30.1577163  75.0559998  36.7922592
  29.8716617  76.5256834  36.5704989  81.5661526  15.5875969  43.8630247
  80.8147240  15.0184190  43.6968374  81.7237186  15.5076945  44.8037815
  47.0018959  14.8204100   3.1881422  47.4266386  15.3616750   2.5226665
  46.0663605  14.9044788   3.0039173   0.4612453   0.9317788  36.4298439
   0.5062715   1.8846993  36.3514400  -0.0103847   0.6490140  35.6463623
  34.5658469  69.9510813  30.5114484  34.4653344  69.2333841  31.1367798
  34.7574735  69.5186234  29.6792889   6.4561999  17.7741766  59.5825052
   7.0887744  17.8700817  58.8705444   6.8402070  18.2615530  60.3113604
  16.2945628  34.3347669   1.5383068  15.6251585  35.0084448   1.6578357
  17.1206284  34.8180866   1.5224907  16.6862094  69.9910545   2.9911199
  16.7183602  70.8657217   2.6036265  16.7530179  69.3957424   2.2445458
  28.9537311  64.1083002   6.4495075  28.1416559  64.3149996   5.9868622
  29.5184588  63.7209368   5.7807291  68.5321712  25.4792929  66.2896442
  67.7960348  25.5163527  65.6789398  68.2333803  24.8992538  66.9900084
  41.8421173  32.6641893   6.2937182  42.2964716  33.4219265   6.6619992
  42.1751356  31.9189525   6.7936689   6.3131547  53.4727097   5.8644944
   5.8991444  53.5191536   6.7262775   7.1537149  53.9162397   5.9783751
  55.2047062  40.1878023   9.9900204  55.0656843  40.1413345  10.9359300
  54.9219656  39.3333554   9.6641201  57.5063944  46.9137955  62.7916765
  57.5159454  47.5376654  63.5175753  56.6528225  47.0411301  62.3776388
  16.5475416  42.3706818  32.9379749  17.1958768  41.6793060  33.0717421
  15.7480145  41.9050598  32.6926494  36.4488006  37.0103383   4.8448518
  36.5033054  36.2886071   5.4712427  35.8801746  37.6530623   5.2688813
  43.7542534  36.3197589  56.1992884  43.9408398  36.9527483  56.8926430
  43.1645584  36.7830133  55.6044054   9.4122267  60.0179863  11.7426229
   8.7390655  60.5513191  12.1652806   9.5461106  60.4325533  10.8903074
  23.9695191  67.2862148  38.7044454  24.2583776  68.1398392  38.3817720
  23.0140948  67.3439455  38.7123728   8.1078440  57.0389223   4.9265042
   8.9208823  57.0982027   4.4248202   7.4305838  57.3418474   4.3217012
  73.0501175  19.5724034  65.3931046  72.6028872  19.5902050  66.2392139
  73.2004261  18.6428487  65.2211523  28.3752060  18.7279570  45.9332037
  27.5761390  19.0454423  46.3538313  28.3490372  17.7788734  46.0548019
  44.6766376  59.5125818  42.7428293  44.1816092  60.0413132  43.3686256
  44.2130423  58.6755323  42.7169752  47.1962070  48.7123871  35.9829354
  47.6214886  49.2976618  35.3561783  47.6471710  48.8792896  36.8105841
  54.5323277   4.4559997  10.3165662  54.5457411   5.1913959  10.9291387
  53.8558960   4.6869215   9.6798956  43.4168482  48.0940008   4.8113438
  43.0666780  48.8916111   4.4145665  43.3140469  47.4248219   4.1346875
  22.9361343  44.7071218  18.2437921  23.4608889  45.3084087  17.7152848
  23.1955957  44.8926544  19.1462827  55.8185101  54.9302101  21.2681890
  56.1195469  54.1442585  20.8122468  55.2714586  55.3842163  20.6272149
  11.6635895  29.6979666  60.9508467  12.5903106  29.7317910  60.7136202
  11.4644372  28.7633395  61.0060167  57.4192095   5.0043571   1.6643268
  57.7491760   5.0570250   0.7673418  56.8362999   5.7587731   1.7497851
  47.5115395  55.1313210  24.0634227  47.3549223  54.7840261  23.1853080
  47.2561026  56.0520172  24.0059280  80.6391239   6.6398782  40.5464077
  79.7035503   6.8417907  40.5338478  80.7152176   5.8260393  40.0483036
   6.7888713  67.2315693   7.4955231   6.5220129  68.1169128   7.2481591
   6.9154108  67.2755671   8.4433019  38.8225436  26.4134860  30.0470209
  39.4870925  26.4936042  30.7312655  38.9145470  27.2131133  29.5289826
  59.0326752  21.3326170   0.0858174  58.3294948  21.4307311   0.7277976
  58.9096772  20.4532197  -0.2716245  11.3216686  75.0247335  21.0253000
  11.5011322  75.9415388  21.2338519  10.5303514  74.8165798  21.5220118
  38.2240868   2.4850172  15.6403232  37.6280546   2.8547573  16.2916827
  38.6807513   1.7834173  16.1044848   9.1466331   4.9829870  24.3121171
   8.9190441   5.7391876  24.8530388   9.1532522   5.3220826  23.4170175
  47.5850296  73.1035233  36.9470978  48.5373068  73.1860161  36.8961358
  47.4215031  72.1636581  36.8687153  64.6373892  48.6642361  36.8211937
  65.1988697  48.1820250  37.4281883  64.7017193  48.1790733  35.9985685
  24.2739916  69.8153734  37.1957612  23.6547208  70.0467300  36.5035105
  25.1194715  70.1299906  36.8757415  47.0763540  64.3675566  48.8281250
  47.4537516  64.5030880  47.9589701  46.4561749  65.0887871  48.9350748
  36.6129541  41.6923237   4.0594763  36.3458681  41.6967201   4.9786484
  37.5531530  41.8704605   4.0824005  60.0400639  60.3586245   4.0758026
  60.7647800  60.9588003   3.9002958  60.3507471  59.5095634   3.7614715
  61.2799168  17.8247583   6.5266973  61.8312311  18.3057845   7.1438670
  60.6172609  18.4589171   6.2529033  44.7107887  41.5897560  10.5082750
  45.0215244  41.9914770   9.6969199  44.8878002  40.6557655  10.3961897
   7.3801690  34.3399882  55.0516367   6.4908201  33.9871931  55.0803709
   7.9428911  33.5854459  55.2255440   5.5418503  64.1920948  40.5972195
   4.9932796  64.7111320  40.0090837   5.2080917  64.3893242  41.4723969
   5.1213580  38.0694079   4.5534390   5.6994891  37.6375031   5.1822901
   4.4194749  37.4369693   4.3997714  58.9407206   2.6333272   5.2798855
  59.0959120   1.9223347   4.6580842  58.3464336   2.2578761   5.9295708
  18.9948666  51.5454054  25.2027392  18.1555140  51.6850996  25.6411505
  19.4957149  51.0026217  25.8116484  59.4708538  63.3172369   5.4130560
  60.4065800  63.4217501   5.2406526  59.1699266  64.1964483   5.6425440
  38.7148428  64.2338037  32.5058675  38.8199425  64.9386740  31.8668509
  39.0707493  64.5924902  33.3188295  80.4160595  57.4173403  51.3088226
  81.1715698  56.8572283  51.4869022  80.7878304  58.2920790  51.1954689
  37.4075508  37.8799748  27.4320412  38.0511165  38.5765958  27.5615549
  37.0552802  38.0391145  26.5563631  26.3054895  51.0686588  35.4652810
  26.1908960  50.1482630  35.7018638  26.0066628  51.1216068  34.5574641
  39.0073705  28.5178590  16.7788136  38.0817246  28.4778118  17.0192432
  39.4614244  28.6944222  17.6027620  34.9578118  31.6442919  29.2610407
  34.4095397  31.4624238  30.0242925  35.3981066  30.8140659  29.0791178
  79.3098211  75.6997395  50.7506657  79.1387892  75.1007414  51.4774275
  79.8683405  75.2002811  50.1549959  16.5612423  70.5222654  14.9496269
  17.5086296  70.6392336  14.8788643  16.4450991  69.5809126  15.0784564
  19.4398236  52.2409773  15.4258621  18.9583862  52.3501825  14.6057856
  20.3468871  52.4474764  15.2004158   8.7008041  28.1098533  63.5839939
   7.8326041  27.9713535  63.2054710   8.5615307  28.0544519  64.5293856
  42.2418451  69.4336462  10.6437862  42.2847939  69.6007729   9.7022688
  43.1067801  69.0887594  10.8655274  53.1033087  46.3060760   7.1227860
  53.3321619  45.8282518   6.3255769  53.5059500  47.1671009   7.0098770
   1.0639013  69.5812988  23.5920763   1.8776409  69.4695711  24.0835810
   1.3482954  69.7834682  22.7007413  54.0245962  52.8157902  19.6397793
  54.8183966  52.4299717  19.2693043  53.4850073  52.0642138  19.8851550
  56.2530947   5.8018261  48.8373041  56.6728926   5.0335360  49.2242527
  56.9732523   6.4101595  48.6713743  60.5161333  18.3696508  20.2049184
  60.6411505  18.7983274  21.0515809  60.2699041  19.0790462  19.6113169
  15.1215124  52.6269341  13.1102276  14.5043659  51.9885969  12.7526116
  14.7890127  52.8159666  13.9876914  70.4912853  50.0580215  13.8099849
  70.9406519  50.6756353  14.3869209  70.8175039  49.1989994  14.0781128
   1.9222239   6.8715882  56.5231371   2.1023640   5.9495705  56.7066193
   0.9735712   6.9107199  56.4016533  26.2097168  76.6633892  44.7890282
  26.0787034  76.5653801  45.7321405  26.0240793  75.7957172  44.4299793
  13.0979049  69.7283602  35.3082204  12.2881639  69.6670341  35.8149648
  13.0458462  69.0037775  34.6849227  77.6199007  30.5179501  65.2238178
  77.6609993  29.7493625  64.6547699  78.3990002  31.0257339  64.9971247
  38.6155844   4.5610344  28.2919359  38.1372166   3.7866008  27.9958773
  38.0324817   5.2934754  28.0925465  12.0280302  59.3748283   3.5703275
  11.7369056  59.3196964   4.4805139  12.6422000  60.1089287   3.5593516
  32.6245141  57.7157593  42.7648211  32.4092937  57.0606709  43.4287262
  32.8725958  57.2039604  41.9949198  71.1267567   8.7274605  29.7282267
  70.5887079   9.4637722  29.4373989  70.5659342   7.9604787  29.6122551
  49.4144058  64.4789553  16.2158883  49.7907829  65.3466225  16.0684919
  49.5720005  64.3039703  17.1436691   3.4627235  53.9174795  37.9323292
   4.2167026  53.4221268  38.2522893   3.4396222  54.7004700  38.4824419
  60.6654835  16.3107491  57.4425030  60.1324940  15.9387136  56.7398310
  60.9558392  17.1564186  57.1007872  53.9661121  50.0986290  16.6306841
  53.3635044  49.6787500  16.0168481  54.2379284  49.3942928  17.2191167
  58.2990694  20.2864051  11.0455668  58.5214806  20.0703955  11.9511628
  58.9813232  19.8636317  10.5240047  58.3554316  43.3316040  56.3662195
  58.3643341  44.2747593  56.5293503  59.1765165  43.0155563  56.7432690
  20.5057669  49.2354774  44.6897793  20.4281473  48.4214401  44.1922331
  19.6015704  49.4970226  44.8637104  35.0730205  60.2542639  26.3641405
  34.3383503  60.2932405  25.7517910  35.8265924  60.0258732  25.8198977
  40.0777292   6.4211386  21.0680723  40.3986263   5.6081110  21.4582562
  40.8310223   6.7727065  20.5935359   1.5616991  44.4776917  15.0617146
   1.4226288  44.1101170  15.9345138   1.6935916  43.7148380  14.4987845
  72.1391582   4.0759885   4.7659847  71.8764925   4.6573359   4.0523520
  72.3908567   4.6667364   5.4758418  12.5073719  41.2191486  55.0142336
  12.3498225  42.1599722  54.9351168  12.3080182  41.0189915  55.9287977
  35.5027246  34.5581269   6.5415269  35.5296969  33.6013150   6.5452307
  35.5424094  34.8024344   7.4661738  19.1088402  47.1339369  47.6915884
  19.4609845  47.6915264  46.9978142  18.1621182  47.1455288  47.5508213
  26.5570998  71.0452795  39.7222114  26.6333389  70.7801485  38.8056278
  26.4154315  70.2265215  40.1973867  19.4714499  25.9730101  48.1355476
  19.0373468  26.6712070  47.6453352  20.1855278  25.6882238  47.5652647
  65.5134201  22.6636004   8.3323902  64.6009159  22.4876165   8.5617363
  65.7435846  21.9688821   7.7154458  15.7595992  72.9632664  35.1664424
  16.0322845  73.8661337  35.3298378  14.8049915  73.0075550  35.1117134
  45.8958912  61.4352703  40.7152128  45.2136755  62.1020603  40.6364346
  45.6369543  60.9164953  41.4768267  17.6390755  36.6807628   9.0602452
  17.4015856  37.2428393   9.7977400  18.4710693  36.2846017   9.3192333
  70.3024149  61.0718918  44.0041733  71.1671019  60.8981991  44.3761683
  70.4377985  61.8198681  43.4224224  41.7422581  30.3386879  54.9337816
  41.0023165  30.8928657  54.6855736  42.2889566  30.9008169  55.4827499
  63.1769466  31.4295769  59.7869539  63.8928747  31.4263153  59.1516066
  62.3984528  31.2182832  59.2716551  39.7829556  54.7762585  23.7467766
  40.0936604  54.0043020  23.2737207  39.0511775  54.4556427  24.2739749
  66.0548544  55.0213480  28.4796977  65.6028175  55.3445530  29.2590761
  65.8753681  54.0811682  28.4713221  17.9316342  53.7237501  31.2246037
  17.7188563  54.3884850  30.5695605  18.4895086  53.0997896  30.7601905
  51.8993950  40.1133060   2.7013117  50.9541225  40.0130320   2.8137535
  52.2561741  39.2447424   2.8871503  18.6206889  23.5435200  64.0035725
  19.3916953  23.8555789  64.4772816  18.8932562  22.7066612  63.6272621
  19.9987054  72.7436352  23.1759834  19.7743881  71.8134880  23.1486940
  20.3462553  72.8804398  24.0573025  68.5858727  70.5006886  23.6131549
  67.9243660  70.1855898  24.2290735  68.5601139  69.8721409  22.8917027
  53.5408545  75.8524036  58.4987402  52.8677034  76.5328503  58.5082817
  54.2150879  76.1740875  59.0972042  80.3282070   4.5601818  54.5246410
  79.6906567   4.3024048  53.8588238  80.0846863   5.4567593  54.7550297
  71.5118074  23.8715816  60.3400326  70.7547426  23.6745858  60.8916426
  71.9409323  24.6076584  60.7762384  26.5315223  58.5002851   7.9211724
  26.8501782  58.7838602   8.7780696  26.0103083  59.2375898   7.6034504
   7.0812356  58.3586216  18.2443070   6.7604107  59.1849232  17.8830254
   7.5757366  58.6137056  19.0231729  42.9128790  60.4803181  27.8257561
  42.3410940  59.8066807  27.4576426  42.3542213  60.9611177  28.4364605
  29.9465799  68.7403584  66.8950796  29.0584135  69.0247393  67.1107626
  30.2472901  69.3701792  66.2400007  59.0517569  64.8880672   1.0878984
  58.6306190  65.3922319   0.3917020  59.7705555  64.4309235   0.6513425
  48.6654472  62.4546909  53.3162689  48.0768394  62.0174599  53.9315796
  48.2398701  62.3537445  52.4648428  58.4686470   7.5557697  38.3867884
  58.5047913   7.6053256  39.3420219  59.3856096   7.5292367  38.1134629
  43.3280897  14.2214227  23.4358430  42.4108219  14.4948173  23.4460258
  43.5126591  13.9684153  24.3403625  49.4967890   1.9931991  22.3556757
  48.5778666   1.7256476  22.3405719  49.5883465   2.5780839  21.6035080
  47.1089983   4.7789901  35.3379989  46.9481611   4.7828054  34.3944168
  47.7266598   5.4965991  35.4785872  16.7468810  49.0677977  27.1428251
  16.1979032  48.3239651  27.3909521  16.2497616  49.5142746  26.4574313
  51.9255209   7.8425944  37.7421904  51.1527109   8.3836073  37.9043603
  52.5901175   8.1898367  38.3371425  16.1830580   4.1512448  48.5719776
  15.6447470   4.6087390  47.9261017  16.9907999   3.9397818  48.1039286
  72.9216433  40.0811243  19.6445286  73.3290911  40.9422588  19.7376227
  73.5411453  39.5790148  19.1150594  48.1323671  21.3862491  51.2934065
  47.6103687  21.3618302  50.4914379  47.5562859  21.7909431  51.9419289
  40.5665302   2.0474826  46.3718176  40.2738810   1.4678271  47.0750904
  39.9153543   2.7487966  46.3528967  48.1725454  15.9351206  19.2543447
  48.6404657  15.2380693  18.7945616  48.6941624  16.7211521  19.0921664
  41.8683386  21.8852353   4.8653519  42.8090477  21.7196965   4.9277073
  41.5955877  21.4219117   4.0734106  43.2409716   2.5831720  20.0878501
  43.4498787   1.6592562  20.2255845  43.9662170   2.9165345  19.5595288
  36.5011311  34.6618581  20.2854848  37.0451164  34.7117209  21.0715032
  36.9653630  35.1933932  19.6388066  35.2188492   1.2678389  15.3007114
  35.6294394   1.9947024  14.8323977  34.6353722   0.8669363  14.6564591
  40.2248526  55.9508038  11.4049327  39.3761373  56.1185312  10.9953249
  40.6595373  56.8035746  11.4131689  81.5083694  55.8144855  46.0348892
  80.8891487  55.0983620  45.8936024  81.4557838  55.9949255  46.9734526
  28.2367206  41.5694237  32.7591968  27.4339390  41.0725832  32.9170752
  28.8740039  40.9122658  32.4794722  16.7298317  40.0241089   4.2086381
  17.6380968  40.2149916   3.9744326  16.5462101  39.1831183   3.7900120
  63.2166052  15.2856481  26.2663460  64.1089296  15.6319511  26.2584615
  63.3246565  14.3424249  26.1443448  67.1001768  65.2547359  25.1628637
  66.2748575  65.1388168  25.6336570  67.2103357  66.2036705  25.1026654
  50.4582977   8.6320418   2.9269892  50.7821369   9.4626516   2.5784951
  49.5586348   8.8192153   3.1949529   6.5937454  61.3018227  63.9018440
   6.8942046  61.1113691  63.0132055   7.0331639  60.6500816  64.4480848
  -0.1005325   8.6239105  45.9216309   0.6658205   8.1592584  46.2578344
   0.1128491   8.8072407  45.0067043  34.4746804  58.2047749  21.4109659
  33.6523032  58.6894131  21.4820457  34.6392584  58.1490421  20.4696703
  38.8495541   3.3819193  22.2127461  38.1094146   3.9747596  22.3429990
  38.7259269   3.0349764  21.3292408  66.2546301  69.9939537   5.6719053
  67.0698309  70.4634190   5.8487713  66.1607933  69.3907785   6.4092022
  18.0221009  59.5578194   8.8309813  17.1891177  59.3347931   9.2464715
  18.3026266  60.3597021   9.2720282  63.7153578  12.6193559  59.4703722
  63.6511517  12.0485365  58.7046862  63.0150032  12.3212349  60.0507689
  54.2998219   4.1192496  39.4409156  55.1936579   4.1673079  39.7799969
  53.7748718   3.8344640  40.1889515   5.8912539  11.2376523  54.1701794
   6.1382520  12.1623111  54.1854048   5.9658939  10.9849226  53.2499695
  63.5517025  34.8370719  57.6719999  64.2470837  34.4183850  57.1646738
  63.9044094  34.8944497  58.5599947  38.2186627  22.8697062  32.5630093
  38.3685923  21.9703507  32.2716141  38.1558847  22.8053927  33.5159802
  40.8303070  62.4543285  20.6531930  41.4792585  63.0979395  20.9375548
  41.1040878  61.6376209  21.0706425  55.5543947  25.8098340   9.3957585
  55.8913326  26.0563898  10.2571034  56.2275648  26.1039162   8.7820858
  51.3960695   7.6860696  25.5277443  52.1957779   7.9349852  25.0643468
  50.8479023   8.4701902  25.4976821  79.2651749  45.9675598   7.0458585
  78.3616018  45.7406855   6.8260384  79.2365122  46.9045067   7.2396129
  43.3827496  55.8414602   5.0777179  42.6809072  55.8087587   4.4276568
  44.0323448  55.2139997   4.7606215  33.9409637   8.5636079  14.8180306
  34.1185832   9.4901609  14.9798429  33.9455938   8.4818375  13.8643408
  64.8599100  49.0683365   3.5135105  64.2531681  49.8064232   3.4559226
  65.4282856  49.2826700   4.2532709  31.2336850  22.6438713  44.2922115
  30.3419518  22.2964716  44.2734098  31.5086722  22.5485921  45.2041006
  45.8402729  67.7810287  19.6127975  46.6570520  67.4461842  19.9829125
  45.4397345  67.0213795  19.1900301  35.1746202  49.4154310   5.0450259
  34.5529151  50.0651932   5.3729272  36.0014343  49.6376991   5.4730529
  18.0712962  57.4099779   3.4051725  17.7506828  57.6645231   4.2704156
  19.0189552  57.5354671   3.4544408   5.7028520  72.0975065  30.2037525
   5.5174303  72.3340607  31.1125398   4.9635136  71.5479898  29.9436688
  46.6704369  57.5919056  12.7262986  46.4753389  57.1939850  13.5747266
  47.1797419  58.3737135  12.9398704  70.4993916  42.9598188  41.9673300
  70.1247311  42.2904778  41.3947487  69.7933197  43.1767845  42.5761127
  63.3910465  11.5510428  18.4627914  62.8927755  12.1709204  18.9954352
  63.8385630  12.0966470  17.8160489  21.8007827  63.5015392   0.7200883
  21.4042354  64.3702793   0.7854845  21.4070153  63.0039501   1.4367351
  41.4126730  64.3765783  15.1219118  40.7856703  63.7975502  14.6885240
  42.1316385  63.8001633  15.3808761  28.7487995  77.8387963  49.8253822
  27.9066478  77.8451437  50.2803183  28.7626802  77.0031327  49.3587923
  49.5916939   9.1698110  64.5831537  48.8718176   9.6140581  64.1352129
  49.8481035   9.7728109  65.2809191  42.4538994  63.9105129  43.5526419
  42.6387691  63.3654642  42.7878094  42.0816994  64.7142267  43.1896734
  71.1534548  38.1916785  20.5433249  70.3815842  38.5207868  21.0039043
  71.8236542  38.8587141  20.6920862  32.5530076  67.3097658  20.9492588
  32.7733040  68.2369471  21.0388970  31.9774461  67.1274424  21.6920376
  23.1204271   3.6038947  62.6889133  22.5724101   4.2548075  62.2504807
  23.6737561   3.2489169  61.9931746  80.5946636  52.5611734  65.8857679
  80.2828503  51.7732716  65.4405546  81.4210796  52.2967291  66.2899256
   8.5791004  18.6119747  39.1599202   9.5240486  18.6980939  39.0338707
   8.3831042  19.1851628  39.9010468  80.8354092  19.2848885   7.2785544
  80.4957199  20.1792455   7.3096389  81.7047691  19.3449783   7.6745880
  27.7468657  31.2434006  60.7661152  27.9245830  30.7328176  61.5560246
  28.1404233  32.0984459  60.9400225  48.9044762  19.0891397  53.2913160
  48.0722332  19.0002441  52.8268814  48.8821316  19.9740243  53.6556149
  10.6752956   5.7178074  61.0842514   9.9105626   5.3949779  60.6076002
  10.5502141   5.4026312  61.9793797  11.9217432  46.6036749  37.3003221
  12.8766274  46.5383911  37.2874522  11.6502857  46.3168240  36.4283943
  38.9679766  28.3931494   6.3484776  38.8899422  27.4399018   6.3867450
  39.7721863  28.5871506   6.8299752  21.2705183  36.9164753   5.7913595
  21.8239450  36.2495661   5.3849339  20.7345009  37.2530460   5.0732797
  78.5625744   0.6010458  37.0300412  77.7015829   0.3303594  36.7112112
  78.9601374  -0.2048633  37.3597169   9.4031012   6.3872594  58.2602310
   9.5906967   6.1655867  57.3481464   9.5831347   7.3254353  58.3206034
  42.2397089  73.2756853  29.9943471  42.6696634  72.4318266  29.8555112
  41.3082838  73.0931997  29.8703122  22.8404903  60.7598257  36.4922810
  22.9616570  59.8318577  36.6933393  23.6882377  61.1596441  36.6864491
  23.2032228  57.8773642  26.5735221  22.9117846  57.3417902  25.8356476
  23.9899826  57.4361229  26.8937469  55.5564213  70.1447916  16.6949463
  55.9874868  70.5293369  17.4581909  55.5637074  69.2028522  16.8650281
  80.5381107  49.6948814  64.5321178  80.0241089  49.4757414  63.7549353
  81.1009312  48.9329576  64.6697187  26.6227484  60.3817225  32.9985976
  26.7525172  59.7850084  32.2614932  27.0381165  61.1984110  32.7216148
  42.0551968  70.4860163  45.7466841  42.3771667  70.7862091  46.5966558
  42.8378534  70.1794386  45.2887630  54.1912651  41.9903135   8.1923860
  54.9682951  42.2162962   7.6811188  54.4748592  41.2676954   8.7524146
  18.3350146  52.5874424  17.8395402  18.7121630  51.9610691  18.4573150
  18.6475778  52.2966814  16.9828057  32.0860004  64.1930342   9.6310723
  32.7491975  64.8831129   9.6449572  32.3786283  63.5662699  10.2927136
  48.5722542  26.8441534   7.5098151  48.9838505  27.2996259   8.2442302
  49.2771959  26.3226271   7.1260142  38.6198068  55.9303188  31.4144373
  38.1186604  55.1263380  31.5511847  38.0288410  56.5001106  30.9221697
  29.9262571  72.9966211  57.2649717  29.0586877  72.6163960  57.4027443
  30.3638053  72.9080153  58.1116915  30.1111674  27.7687073  66.7749977
  29.8485994  28.6247706  66.4367008  29.2870951  27.2991729  66.9041300
  36.7850852  76.1683512   3.6143833  36.5181756  77.0681000   3.8026360
  36.0045815  75.6443262   3.7945065   0.6247416  53.5923195  32.8098941
   1.0938270  52.7715015  32.6600504   1.0620125  53.9834499  33.5662293
  26.7806172   8.5871214   4.6439743  26.0041404   8.4017414   5.1721299
  27.4089193   8.9577949   5.2637088   4.2669365  44.5604134  56.1122274
   4.0012014  44.4591331  57.0262098   3.4504521  44.7319269  55.6430054
  69.2553711  11.8984163  33.2067728  70.1501083  12.2147560  33.0818200
  69.2483234  11.5449834  34.0963054  80.1229095   5.6650734  45.9808731
  80.5814648   4.8671865  45.7175541  80.2653122   5.7224351  46.9256830
  32.9890037   5.1803344  61.1613321  32.6211524   5.6618953  60.4203796
  32.2283030   4.8031545  61.6032648  71.9969988  59.1339779  57.7754879
  71.7536354  59.9813461  58.1482792  72.4033689  59.3494368  56.9360399
  67.4768543  11.9638824   0.1231055  66.9030094  11.2022793   0.2061347
  67.7642727  12.1458864   1.0178110  82.0323086  39.7224259  11.6524231
  81.2608624  39.2092967  11.4119852  82.4481201  39.9355292  10.8170080
  32.6605940  59.5215702  63.2974005  32.1686935  60.1703215  62.7940273
  32.5496387  58.7055254  62.8095531  77.8988123   1.0311633  44.2991877
  78.5700750   1.3246237  43.6831379  77.2000027   1.6803885  44.2191601
  17.7301049  15.6149888   6.9334763  16.8871725  15.1774514   6.8140668
  17.5091553  16.5429401   7.0129728  36.2831330   0.6126231  25.2296066
  36.0303569   0.5170625  24.3113446  37.1165371   0.1468489  25.2983308
  10.1391792  55.0970984  25.2466226  10.2151096  54.6462774  24.4056535
   9.6928608  54.4696808  25.8152843  44.1681433  73.5826015  39.2146921
  44.4429636  72.6675415  39.2726707  43.5974407  73.7097645  39.9725580
  61.2572861  38.3642149  63.2595921  62.1699190  38.4662843  63.5296249
  61.0171509  37.4857187  63.5542297  13.4084737   2.8177813  32.3442030
  13.0051589   3.0682018  31.5130234  12.7746630   2.2257622  32.7492094
  25.0065303  46.3666248  43.0201721  25.7792306  46.9067383  42.8545141
  24.6961164  46.6500092  43.8801527  44.3556786  69.1629219  24.9455190
  44.1216469  69.8465157  25.5733442  43.5273027  68.7263727  24.7468925
  30.3153300  67.4861670   3.5055891  30.8088541  67.6383734   2.6996735
  30.9650350  67.5691795   4.2036030   5.6254834  22.2670746  36.3858128
   5.9525573  22.0751882  37.2646952   5.9224302  23.1597757  36.2093520
  63.9105797  61.7943907  12.4656773  64.7597361  61.6578627  12.8858280
  64.1093731  62.3149920  11.6874158  37.9168844  57.2848129  18.5024631
  38.3547521  58.1014776  18.7423968  38.5755301  56.6067410  18.6529160
  66.3558531  10.5600917  46.2235928  65.4815865  10.9008753  46.4126778
  66.9428539  11.2952435  46.4002705  40.2270937  26.9287920  58.8772106
  39.7723317  26.3740778  59.5110226  39.5296025  27.4267125  58.4508181
  28.0459261  17.9384112  57.4034166  28.1732965  17.8591669  58.3487892
  28.1069994  18.8780522  57.2314453  76.4713717  59.0822935  26.0818863
  76.1498165  58.2417440  25.7558298  77.1088696  59.3654346  25.4264021
  47.2146320   6.6713357  40.6147146  47.8952932   5.9988970  40.6422186
  47.2321606   6.9931495  39.7134018  32.2606945  56.4901304  15.1658189
  32.4437857  55.6142426  14.8259258  32.8733659  56.5976238  15.8933568
  15.6177747  52.6212215  16.2868643  15.6887066  53.3549595  15.6762683
  16.1526740  52.8811979  17.0368826  24.5050883  67.7583361  26.4896250
  24.2838979  68.6678314  26.2893128  25.4617977  67.7346563  26.4702129
  16.0219526  10.5193269  33.5836649  15.6326902   9.8300242  33.0455494
  15.8453059  10.2483785  34.4845629  72.7154350   2.8094810   2.0832071
  72.5414658   3.7409461   2.2186328  71.9276619   2.3697278   2.4029902
  17.0015264  36.6865635  59.7573376  17.1282744  36.1645746  60.5496120
  17.1644449  37.5877929  60.0356770  66.4904070  67.8678560   7.4231189
  67.2863340  67.9197741   7.9523081  66.7269230  67.2998142   6.6898918
  22.0125580  49.1510773   8.5505551  22.3994637  48.7353134   9.3210578
  21.4989996  49.8778677   8.9030689   7.8016609   9.0113139  36.4977002
   8.4161794   8.2874376  36.3768625   8.1108689   9.6905726  35.8983421
  71.7315626   0.6279967  34.0601063  71.6811514   0.2972800  33.1632686
  71.1876154   0.0261986  34.5682335  17.1770978  59.7023630  56.5643835
  17.3114955  58.7549067  56.5421009  18.0609548  60.0698042  56.5604639
  37.4462724  47.4408817  14.0812337  36.6395736  47.7719021  13.6864007
  38.1439805  47.9344749  13.6501873  34.9172449  32.9281020  18.4265518
  35.7824683  32.5434971  18.2861996  34.9574518  33.7760448  17.9842722
   1.3612132   1.3987654  16.9549227   1.1212562   0.4817696  16.8216157
   0.6517486   1.7568678  17.4884534  45.2244377  20.2135301  27.1377420
  45.7358265  20.8150148  26.5965128  45.8791685  19.6688843  27.5746846
  24.8706579  16.0251248  21.0174179  25.6283069  16.4678383  20.6350517
  24.5747328  15.4235947  20.3341746  57.2273731   7.7978861  15.3524315
  58.1244135   7.6112801  15.0754309  56.8463850   8.2822484  14.6199882
  27.7901769  74.8323345  34.3674803  28.1012487  75.3204870  35.1298285
  28.5072923  74.8915243  33.7362337  25.4397511  77.0215034  27.1843266
  25.6879425  77.8116894  27.6641607  25.2981973  77.3211336  26.2863207
  11.3606668  35.9651756  61.2158394  12.2456014  35.7505417  61.5108919
  10.9501755  35.1160669  61.0523129  46.2895250  50.4222441  16.2234354
  47.1992588  50.1354456  16.1436772  46.1223745  50.9148788  15.4199398
  52.6743650  63.7783098  19.0349483  53.0973148  64.3472862  18.3918238
  51.7385101  63.8672829  18.8546753  32.5860286  63.1417799  26.2822700
  33.4217000  63.5639572  26.4814019  32.7525306  62.2081041  26.4117074
  49.5989323  47.2194958  43.8399649  49.1623783  48.0510473  44.0248251
  49.4189548  46.6783953  44.6087599  79.7484207  66.1719036  40.6787872
  80.1914787  65.3897619  40.3498745  79.2644262  66.5080643  39.9244809
  51.6864777  12.1143389  13.2496905  51.0141754  12.0013094  12.5777781
  52.4727392  11.7218971  12.8701949  62.5456858  75.5100536   2.9872584
  63.0123758  74.9531221   3.6103630  62.7436256  76.4030933   3.2692707
  55.9191608  58.4912157  12.2853494  55.0135851  58.5134935  11.9760489
  56.4190817  58.1604815  11.5390742  42.9328775  60.9916878  18.1003356
  42.1808004  60.7051086  18.6184895  43.6411524  61.0848570  18.7374377
  71.1901665  66.9076252  12.5127900  70.3064632  67.2712183  12.5685108
  71.7535973  67.6682711  12.3706722  76.2534666  20.4036021  52.8291750
  75.6096458  20.9283686  53.3049345  77.0190716  20.9733176  52.7549505
  33.0081129  71.1141968  14.7693110  33.0980396  70.9086323  13.8387811
  33.8493109  71.5014982  15.0114202  56.3109684  10.4320323  34.8677325
  57.2050238  10.6736660  34.6258426  56.2630367   9.4911367  34.6984673
  19.1529906   5.9872180  12.3011303  19.8093200   6.3351357  12.9048002
  19.3506503   6.4075661  11.4641893   2.7363008  66.6321325  25.3577399
   3.2468998  67.3938322  25.0832605   2.2811757  66.3502932  24.5642304
  39.6133232  39.9391818   3.9074153  39.7079444  40.7222033   3.3650574
  40.4503536  39.4834876   3.8182527   5.2854079  52.2479153  24.3600821
   6.0004789  52.4510860  24.9630952   4.4907036  52.4454880  24.8557043
  40.7595301  69.1880226   7.1156245  41.2100649  69.6600008   7.8159714
  40.7570934  68.2755470   7.4047816   2.1791245  18.9887989  60.3619719
   2.3299433  19.7372007  59.7845793   2.2528934  18.2255697  59.7890234
  57.1178627   4.9928039  28.1757307  56.6033459   4.2192179  27.9453659
  56.6430664   5.7231152  27.7789354  66.1608124   3.1732827  20.5201626
  67.0950222   2.9673567  20.5530024  66.0296106   3.5528103  19.6512699
  25.4518819  37.6006126   0.5425055  25.2367544  36.8291235   0.0183323
  24.9206448  37.5085449   1.3334170  29.7035575  37.3741579  62.5065660
  29.5240855  37.3967409  61.5666103  29.5369911  36.4664006  62.7604628
  16.1508894  43.6278534  54.3501663  17.1030653  43.6387825  54.4475031
  15.8672082  42.8659630  54.8554182  30.1961493  77.5510359  28.1408286
  30.5632138  78.4221840  27.9905176  30.9562445  76.9995880  28.3262801
  64.3386984  62.2623920  46.7128801  64.7787523  61.4185619  46.8155241
  64.1624451  62.3280048  45.7743359  48.4977818  42.2249508   8.3624399
  48.9427185  42.1412039   9.2057955  48.8148975  43.0546427   8.0056828
   5.1214027   4.0091410  15.2158284   5.4353267   3.8699892  16.1093163
   5.1602674   3.1427932  14.8106575  49.0561056  43.1557226  47.2096109
  48.1420660  43.4153938  47.0941067  49.0119648  42.2402716  47.4857092
  23.3841443  72.6939154  15.8551013  23.2243419  71.7576981  15.9742022
  23.8530159  72.9594088  16.6462433  53.2638407   3.9588848  20.1264262
  53.3045435   3.6685738  21.0376310  52.5599289   4.6073863  20.1128793
  14.4455528  60.1010847   6.0577118  14.0554810  59.2557907   5.8351040
  13.7167740  60.6182909   6.4006525  56.7087507  64.5500803  19.9659765
  56.6261959  63.9694548  19.2094779  56.9959736  63.9774513  20.6771922
  70.2297974   6.1336660  41.1566448  70.3842592   5.6160945  40.3663969
  69.5966244   5.6207782  41.6589117  60.4231453  38.3752537   0.5834324
  61.0288525  38.2813573   1.3186403  59.8626757  39.1118526   0.8274225
  43.6751461  52.4731636  34.4787264  43.1940603  53.2419968  34.7847915
  42.9973173  51.8792057  34.1562414  51.5548325  75.7514715  43.2430124
  51.4227486  76.4346457  42.5857067  50.7325840  75.7278538  43.7324858
  59.5099592  55.8093452  30.0066614  58.8094044  56.4603138  30.0478315
  59.8467922  55.8761597  29.1131783  29.3704247  24.8690367  23.7365818
  29.8457885  24.4714046  24.4660664  29.3556952  25.8039284  23.9415026
  61.8858719   5.8299398  16.4435804  62.5703239   6.0866982  17.0615077
  62.1745968   6.1878097  15.6040573  24.0809703  12.9508674  35.2659607
  24.8371887  13.4389126  34.9401164  24.2542195  12.0440054  35.0133419
  80.8751678   6.6267735  28.1519747  80.7316113   5.7006323  28.3466196
  81.7207146   6.8275750  28.5531759  54.1798639  76.2303877  13.8426113
  53.2367706  76.1065817  13.7354946  54.3808270  77.0053101  13.3178806
  17.5563836  32.4789238  32.7576447  17.5557566  32.8627205  31.8807578
  18.1059933  31.6993499  32.6774955  63.9401579   7.6760292  26.6272998
  63.7905216   6.9988304  27.2870302  64.8070335   8.0249941  26.8346167
  67.0672703  31.0621095  57.5757885  66.5523911  31.8302822  57.3287201
  66.4513302  30.5032015  58.0495691  70.7871437  25.6828308   7.1743661
  69.9763012  26.0758662   7.4973041  70.6872129  25.6755328   6.2224245
  76.1167622  57.1945667  22.8802633  75.8935642  56.3302612  22.5347281
  76.4671230  57.0201206  23.7537932  28.7170935  75.3607035   1.4267603
  29.4037843  75.9523582   1.7343767  27.9025149  75.7595682   1.7326990
  47.6216888   5.6126875  14.0650892  47.7063084   5.4198331  13.1313455
  48.4442806   6.0442477  14.2960286  53.9551926  59.4215727  56.6423416
  54.7025728  59.8160219  56.1928225  53.6243963  60.1161575  57.2118616
  60.9690380   6.3862848  25.9817624  60.7092667   5.6278247  25.4588008
  61.8992329   6.5031517  25.7886004  26.4719129  61.8556595   9.9034637
  27.0590496  61.1174536  10.0664210  27.0154905  62.4977827   9.4469142
  58.7174416   0.4650453  19.2997921  59.1563559  -0.3241756  19.6171546
  59.1021729   0.6228025  18.4376276  27.9082727  74.8521757  62.3435640
  27.0233750  74.5878792  62.5952244  28.2703376  74.0850782  61.9000578
  17.7912116  53.4988070  36.8952203  17.1878898  53.6267138  37.6272535
  17.5119340  54.1383839  36.2401080  35.0059032  51.4380455  10.5397797
  35.1106310  50.8711529  11.3039136  35.3365469  50.9171152   9.8079741
  13.7396240  50.7281208  37.7998877  12.9787910  51.2962914  37.9204941
  14.3760896  51.0403776  38.4430337  57.0743561  57.4534512  33.3950591
  57.5822401  57.7803040  34.1376591  56.1734247  57.4210310  33.7167740
  66.9845200  49.9717140  37.4769950  67.4470568  50.0314856  36.6410995
  66.0740805  49.8016500  37.2353172  33.6353731  55.8613157  19.0628314
  33.7568998  55.0549269  18.5616362  32.9325342  56.3235569  18.6061227
  47.3619461  68.9521837   6.9022739  46.5211391  69.3225145   7.1708423
  47.6141310  68.3800602   7.6270568  59.9525976  14.9323046  22.1663117
  60.7170153  14.7023332  22.6945305  60.2994871  15.4982841  21.4766979
  73.9717007  64.5070457  30.5175805  74.0120697  64.3095970  31.4533234
  73.0531263  64.3733120  30.2839875   0.7392194  21.9037819  25.5896521
   0.2515474  21.3427186  24.9866462   0.5886870  21.5164781  26.4519548
  12.1360195  67.5544739  33.5405660  12.9649568  67.1258593  33.3275223
  11.8296194  67.9111958  32.7068400  28.2330823  76.2700033  23.3015156
  28.0471897  76.2223101  24.2392778  29.1771221  76.4201689  23.2518148
  11.0259950  46.1406183  44.4671297  11.2407088  47.0613384  44.6167994
  10.9911299  45.7572794  45.3435230  61.4295816  55.7244158  27.4957895
  62.2600698  56.0436964  27.1428275  60.7790852  55.9719467  26.8386650
  80.6256962  20.9037995  13.1681299  80.7074070  20.0673914  13.6263609
  81.4419174  21.3643312  13.3628607  28.6805844  76.6004419  26.0439348
  29.4010878  76.6718626  26.6700363  27.9146481  76.4003325  26.5820146
  58.2753086   5.2450764   9.1402704  57.7636623   4.4467211   9.0095919
  58.7851763   5.3372204   8.3354247  29.1727519  53.8910818   5.4447442
  30.0016499  54.2934465   5.1853943  28.6241603  54.6267939   5.7167971
  47.9376173   9.3128377  50.2167702  47.4592400  10.1122677  50.4365444
  47.7791929   8.7276256  50.9574890  55.6424856  49.2456627  45.2644968
  55.3777885  50.0029707  44.7423315  56.5842295  49.3600368  45.3920460
  73.5791826  20.5416656   2.3724811  73.0401325  20.7211566   3.1428316
  72.9992533  20.7101083   1.6298240  68.5490656  59.5318460  59.1703701
  68.6671352  58.6428213  58.8358212  69.2501640  59.6410751  59.8128366
  11.2399745  27.3401308  62.4756384  11.6226900  28.0428934  63.0008888
  10.4136121  27.1365190  62.9137039  52.2795391  24.1138411  19.1458511
  52.8980350  23.4096217  19.3401968  51.8091297  23.8118172  18.3688509
  46.9816828  61.4104080  23.6138248  47.6155233  60.7120228  23.4502983
  46.6298008  61.2159204  24.4824958  36.0803032  62.2259712  11.9758976
  35.1657820  61.9605923  12.0731437  36.2774158  62.7054596  12.7805531
  21.2328625  72.2800016   8.8632387  21.8690157  71.7563581   8.3760607
  21.1609840  73.0941010   8.3649361  45.6413841  53.3719635   9.3140209
  44.7712374  52.9777050   9.2536616  45.5070066  54.2875195   9.0692246
  66.3314915  59.6450329  14.8735011  66.2150002  58.6950159  14.8851812
  65.8649588  59.9531126  15.6504583  39.6253061   5.2473044  55.8067799
  40.0059414   6.1255699  55.8070421  38.8920665   5.3038621  56.4194679
  53.8641787  68.4148407  37.5503826  54.4386578  67.6622152  37.6909733
  53.2082891  68.3484554  38.2443833  72.6973629  70.1459932  36.2401795
  73.3112144  69.4963789  36.5828443  72.5856352  70.7711267  36.9563913
  53.0526829  73.4021997  43.2911539  52.5705481  72.8174734  42.7064610
  52.5118828  74.1904211  43.3409309   2.7610084   9.6470529  24.2646027
   3.2334843   8.8192511  24.1766143   2.7660435  10.0205529  23.3832932
  18.8512146  24.2967987  25.9378219  19.5997453  24.2949104  26.5344214
  19.1919160  24.6751738  25.1272750   3.7389326  24.9071264  53.8186884
   3.1337276  24.9038839  53.0771065   4.5712769  24.6114922  53.4498596
  78.5692787  27.7734017   7.2130793  78.9126635  27.3814011   8.0159825
  77.6309395  27.8696489   7.3758382  15.1249111   9.5692974  11.1533415
  15.4125655   9.6738011  12.0602953  15.6104958  10.2374291  10.6695652
  61.0252666  62.1156836  59.6737623  61.9537830  62.2991753  59.8166513
  61.0003805  61.1948872  59.4134808  28.0396938  18.6279857  60.2002716
  27.4114132  19.2371178  59.8123884  27.6127625  18.3204341  60.9998798
  54.4279718  48.2201815   5.2079260  55.3144026  48.4352207   4.9176946
  54.3417883  48.6546087   6.0564995   4.8702210  48.0609894  48.0811739
   5.2750188  48.5466957  48.7998199   4.8414549  47.1555424  48.3903170
  70.1641178   8.4753537  53.1520891  69.4851828   8.5124499  53.8258123
  70.8430767   9.0741491  53.4630394  81.0708332  57.2014093  29.2546916
  81.5559196  57.1022415  28.4354925  80.1729202  56.9550085  29.0326834
  20.8326292  64.2758989  38.1874251  20.7060122  63.8271236  39.0233684
  21.7154264  64.0272665  37.9134107  36.3807535  56.6521263  22.5024819
  36.4744425  56.0693741  21.7489219  35.5611658  57.1201420  22.3428869
  50.4104280  76.5598059  31.2652159  50.9845734  76.9314384  30.5955338
  49.8570061  75.9404850  30.7893991  79.0760040  19.9481606  63.6379051
  78.3296251  19.7139490  64.1895342  79.4366026  20.7360125  64.0447092
  32.2294617  73.1585121  27.7385688  31.7038441  72.7633190  28.4341145
  33.0474019  73.4078407  28.1687307  58.4506369  63.8660955  34.7682118
  57.5526953  64.1957474  34.8037171  58.6278629  63.5576725  35.6568599
  44.0766144  74.2760468  57.7367067  44.5686483  74.3726206  56.9213486
  43.1599569  74.3623543  57.4749422  74.3213129   0.0498415  55.0493717
  75.2090073  -0.1254544  54.7371101  74.4348574   0.7033638  55.7394791
  43.4881401   9.5489705  13.1411827  44.4006157   9.6144187  12.8595197
  43.0000973  10.0551510  12.4916983   9.2922038  34.2094111  51.1936760
   9.3470901  34.8791766  51.8753195   8.9490426  33.4373593  51.6435766
  64.4626617  73.4014273   3.9436573  64.2131090  72.4779987   3.9085111
  65.1112652  73.4476805   4.6460876  54.2510366  13.4574139  27.5020623
  54.3821621  12.9056919  28.2731915  54.7642040  13.0334854  26.8141842
  53.4756470  67.7796316   3.7263095  52.5843668  67.4322701   3.6918396
  53.4010649  68.5793400   4.2470098  71.1338234  19.3491995  38.5935736
  72.0495176  19.6222150  38.6501169  71.1531639  18.5552502  38.0592513
  79.1411638  59.2793941  31.1147642  78.1984901  59.2324018  30.9554195
  79.4947433  58.4963989  30.6927013  27.3256564  54.3591356  53.0445957
  28.1135559  53.9346886  53.3841419  26.6073895  53.7947559  53.3306074
  20.7907915  71.6189384  61.2752533  19.8459542  71.5363121  61.1460781
  20.9040236  71.6128778  62.2257137  80.6379986  16.9862330   5.9339005
  80.4908943  17.8359127   6.3493979  81.4808846  16.6930604   6.2800735
   5.6755054  17.6918626   6.8280202   6.5171582  17.8128886   6.3884687
   5.0542265  18.1903732   6.2972367  27.9453206  11.8887985  23.5811973
  27.1046877  12.3462617  23.5639834  27.8283930  11.1502874  22.9835677
  33.1984830  46.6062737   1.1438179  33.5469699  47.1302557   1.8650874
  32.3382330  46.9862890   0.9655238  79.0520466   0.0058273  22.3903346
  79.3939293  -0.6751534  22.9696560  79.6037520   0.7682375  22.5652122
  54.7851276  72.3845482  22.4974537  54.7669029  72.3588467  21.5407729
  53.8655138  72.4582100  22.7526331  77.2662067  70.0974798   7.1615762
  77.0369053  69.3346596   6.6307640  78.2215214  70.1402140   7.1193796
  74.7559309  29.9255061  24.2117429  74.9243021  29.4349241  23.4072471
  74.6602774  30.8331585  23.9232087  40.3009701  71.8799829  65.4677391
  41.1944342  71.5928698  65.6562042  39.7450161  71.2148333  65.8736038
  40.3560829  56.1809158  20.2236843  39.9772453  56.7424345  20.9000015
  41.2347364  56.5339375  20.0837755  81.4765739   9.6201539  27.8766370
  80.7175541   9.3531626  27.3581457  81.9974136   8.8221908  27.9672480
  50.8984995  14.2090893  41.5078497  51.7514133  14.0965807  41.0881948
  50.7806826  15.1575553  41.5604258  41.5931416   3.4224609  26.8504333
  41.0922861   3.7922877  26.1233807  41.1140394   3.6933249  27.6335859
  49.5021009   1.8281998  60.4505491  50.1822567   1.1729410  60.6062746
  48.8005543   1.3458878  60.0130129  44.3009138  52.1885729  20.6440973
  45.0655270  51.7646599  20.2543545  43.7161207  51.4656639  20.8713531
  71.4916945  41.4580822  16.1773622  71.1169291  41.9473600  16.9097471
  70.7407141  41.2413788  15.6248188  38.5005164  65.4243279  46.9888258
  38.6640763  66.3197660  46.6927433  39.1503906  65.2767897  47.6759434
  21.5264559  35.3096843  66.4647532  20.7918143  35.4816389  67.0537901
  21.7648911  36.1708307  66.1215210  57.8721571  54.3454027  64.6121645
  57.0816088  53.9459276  64.9750519  58.5532570  54.1582632  65.2581596
  55.8068657  73.3240557  39.4429493  55.1779032  73.0090284  38.7937975
  56.4946651  73.7436199  38.9261055   6.1261010   9.5499742   8.7814301
   5.5621845  10.1509774   9.2682821   5.5239099   8.9075816   8.4060240
  38.1906486  74.7609711  24.7695518  38.9916086  74.5800591  25.2614546
  38.2449007  74.1882563  24.0045094  14.5318687  29.5999050  66.0102892
  14.5863557  28.6479235  65.9266424  13.7136614  29.8324680  65.5713320
  35.4382753   3.3493805  13.3817971  35.0606489   3.7644026  12.6063049
  35.1868606   3.9221117  14.1063666  66.3714218   4.2228463  30.4302096
  65.5966997   4.5551956  29.9767995  67.0508575   4.8729628  30.2514648
  13.1030810  18.8103175  11.7974889  13.1216192  17.8572011  11.7111361
  12.2496593  19.0659726  11.4474261  30.0638151  49.7379827  10.1237094
  30.6905627  49.2698479  10.6753159  30.5843830  50.0549841   9.3856364
   6.6742134   0.3389670  40.8957148   6.2281251   1.0372126  41.3749790
   6.2142324   0.2920280  40.0575972  29.8771167   1.7614082  17.9473686
  29.0787578   1.2408038  17.8589118  29.7893691   2.1918449  18.7978125
  73.0055285  33.4408593  11.2380779  72.1668720  33.5518146  10.7902217
  72.9547453  32.5685930  11.6289771  22.3028469  23.9451456   2.4189450
  21.4970279  24.2638707   2.8255183  22.8546286  24.7231817   2.3387529
  23.1972051  18.1431818  19.6220398  22.7248168  18.7468064  20.1953793
  23.5200858  17.4590325  20.2084851  49.6217060  71.2450933  63.4927130
  49.1369438  70.4215145  63.5470438  50.4773378  71.0448694  63.8722277
  57.0379496  62.3947334  58.8370371  56.3364363  62.7914000  58.3205414
  57.6912880  63.0885553  58.9264011  28.8722897   1.2451150   0.8325554
  29.1685534   0.4621202   1.2966448  29.2454576   1.9734168   1.3290969
  36.7645836  45.5418682  25.3891802  36.7123032  45.3003168  26.3139248
  36.6675138  46.4941263  25.3845119  37.3406386  63.4068537  54.2129374
  37.7424288  64.1362429  54.6849394  36.6008282  63.1453228  54.7611284
  79.1318035  68.6535311   3.6348191  79.9186850  68.8017702   4.1592991
  78.4648180  68.3958864   4.2712000  56.3720417  44.0084743  45.6388092
  56.4275932  44.5046902  44.8221588  56.0158873  43.1588221  45.3790474
  59.5187092  74.3274975   0.3194319  59.5804930  73.3776379   0.4203229
  58.5878944  74.4923353   0.1689574   1.3713697  52.7043104  61.6185856
   0.7111014  53.2918024  61.2509823   2.0883831  53.2826519  61.8786716
  13.5009980   1.8726021   0.9189029  13.8187587   1.5587074   0.0723040
  14.2401922   2.3559631   1.2879366  24.1490102  29.3424654   0.0024399
  24.0129685  28.5055685   0.4466560  23.6343884  29.9696732   0.5103843
  55.3727865  17.9009151  48.1357670  55.2214384  17.3304367  48.8893414
  56.0424185  18.5171568  48.4325361   2.0389166   9.5430386  19.0723670
   2.0624852   8.8973165  19.7785676   1.3214025  10.1307380  19.3090427
  24.7386241   8.0561596  65.8437395  25.6911969   7.9646301  65.8223057
  24.5790768   8.7508571  66.4826250   4.1564605   5.3089929  45.0517130
   4.4280660   6.2142152  44.8999405   4.6914983   4.7939426  44.4478178
  24.2596912  18.9758956  17.1239531  23.9383221  18.7220454  17.9891205
  23.6220145  19.6171308  16.8102407  68.2312012  57.3309326  12.3247504
  67.8359747  57.8353786  11.6137195  68.9820528  57.8557968  12.6021945
  59.9812269  22.3886538   9.8466605  59.6383905  22.6425052   8.9897746
  59.2215586  22.0439363  10.3160310  16.8890703  58.1209040  13.2738471
  16.5723813  57.2554398  13.0151606  17.8203952  57.9914522  13.4530354
  24.9401975  16.8734002  26.4617991  24.5916557  16.4448690  25.6800628
  24.9786854  16.1784244  27.1188831  31.3696766  73.4273815  37.8369784
  32.1405435  73.7261677  38.3193922  31.0827971  72.6435947  38.3056045
  73.1711578  56.1741018  60.5324125  73.7623549  56.6778374  59.9729729
  73.2778549  55.2689457  60.2399397   6.9609791  56.6822624  53.8031006
   7.8766245  56.9134045  53.6469030   6.8828690  56.6439915  54.7563410
  65.4284191  56.7653465   6.0808563  64.6459675  56.6899490   6.6270375
  66.1280918  56.3833094   6.6107088  55.5937099  12.5166154  25.2532911
  54.9204016  11.8378735  25.2064037  55.7520580  12.7603066  24.3412757
  26.3194251  74.0255928  52.9178572  26.3625336  73.0767536  52.7992392
  25.5927992  74.1580915  53.5267019  72.5912285  55.6109667  54.1978502
  71.7466974  55.3396654  54.5575714  72.4454451  56.5068531  53.8939381
  45.8956480  70.9695101  62.0206642  46.3271236  71.8221474  61.9652748
  44.9676085  71.1773109  62.1292400  34.6066618  19.1892564  59.5460129
  35.0302505  19.1238558  60.4018927  34.1044474  18.3784509  59.4647455
  61.7162943  77.8767395   8.5567832  62.3271751  77.1873093   8.8170612
  60.8822155  77.4236298   8.4333646  68.4883070  30.5025434   6.3446420
  68.8592577  29.7824574   5.8346397  67.5515318  30.3099751   6.3846934
  78.4259367  40.6371593  40.6954908  78.6863089  40.1824665  41.4965487
  78.8706684  41.4833260  40.7450438  31.2880611  21.1367559  64.1780186
  30.4393959  20.7511806  63.9604616  31.1931372  22.0637560  63.9591742
  22.8381395  43.7612820  45.3149557  23.2065725  43.9789391  44.4587326
  22.9686499  44.5511436  45.8396578  28.2466364  17.6639462  21.7559958
  28.6193109  18.4471631  22.1608639  28.0036235  17.1052361  22.4942493
  43.9068270  51.1794233   4.4583976  43.8904810  51.1672449   5.4153806
  44.6922255  50.6840992   4.2259431  15.5368543  58.4315777  23.4630299
  15.0821865  58.4969330  24.3028164  14.8407495  58.4899378  22.8086114
  31.2251067   4.0779331  63.0434656  31.5367460   4.5199877  63.8332129
  30.9199047   3.2245150  63.3512974  23.7619019  40.3221846  13.0083907
  24.6440554  40.4477310  12.6587129  23.5040808  39.4529414  12.7015054
  61.9751120  41.9658422   9.5897400  62.6443243  41.6684246   8.9733547
  62.4218178  41.9879198  10.4360235  37.0401907  22.3561430   2.5097889
  37.4433184  22.7206302   1.7218363  37.2371650  22.9934216   3.1963086
  65.2715683  66.0862970  55.1843643  64.3705606  66.3213301  55.4061174
  65.1996374  65.6218910  54.3504667  44.0492392  15.8613276  15.4476225
  44.4396591  15.0433695  15.1398110  43.1182432  15.7742703  15.2429163
  64.9403000   1.0785799  34.9703789  65.3389215   0.2156025  34.8581171
  64.4920969   1.2450850  34.1411495  33.0746293  17.3733437  53.8779116
  32.3460078  17.1633923  53.2937336  32.6776123  17.8880107  54.5805693
  31.7579055  52.0246649   9.4292396  32.3607755  52.7681541   9.4285381
  31.8380666  51.6521358  10.3073239  81.4324760  60.5728769  44.5173073
  80.7770920  60.4116726  43.8385487  81.9668388  61.2868404  44.1695452
  39.9594498  20.2467752  52.1298742  39.1185069  20.2689004  52.5865507
  40.2414560  19.3341291  52.1913719  17.6633239  75.2956390  19.3730485
  17.5086415  74.7717905  18.5869908  18.4949028  74.9703455  19.7178531
  75.3331423  71.5933704   8.6760271  75.6869268  72.4827337   8.6656678
  75.9716511  71.0758829   8.1853700   2.0897187  18.8255811  51.1752367
   2.1267228  19.5523298  51.7970896   1.6654071  18.1173193  51.6595459
  20.9190750  39.1823721   7.5238448  20.7693553  38.3898139   7.0084161
  21.0177541  38.8684392   8.4227002   5.2333605  38.0532384   7.7907348
   6.0397744  37.5408721   7.8491110   5.4194212  38.8501120   8.2873273
  27.3824310  26.5933657   5.3087419  26.9428396  25.8889365   4.8325375
  28.3152771  26.4012527   5.2132338  18.5783553  55.6722927   9.7083187
  19.2238724  55.3716183   9.0686828  17.8670883  55.0344944   9.6487445
  22.1112397   0.5004648  60.0869036  21.7256406  -0.2614065  59.6543598
  22.5423148   0.1425890  60.8630037  43.5773039   9.8387754   1.0326156
  43.1158733   9.1091496   0.6191413  43.3338404  10.6030071   0.5102113
  52.8378201  27.5935960  23.4772134  52.3284769  26.8650913  23.1221366
  52.9805565  27.3612857  24.3947577  21.0229015  38.0163217  21.8532228
  21.5670252  38.8022423  21.8033004  21.6206312  37.2976851  21.6470385
  36.3733745   8.2493722  66.3548946  36.9850922   8.6509746  66.9719410
  35.5075121   8.4762955  66.6940451  38.0265760  26.7255092  10.2389944
  38.7434220  27.2660828   9.9071199  38.3975101  25.8450007  10.2968025
  81.7396164   0.3329648  40.1359701  82.2756481   1.0936996  39.9119449
  80.8579445   0.5675808  39.8464346   3.2385394  46.9574213  23.3915615
   4.1738009  46.7605019  23.3392239   2.8494695  46.4660835  22.6680684
  12.8238881  38.6029315  32.9903650  12.4769068  39.2057705  33.6479521
  13.2695627  39.1677880  32.3590612  63.4321928  10.5906475  14.5143127
  62.6065302  10.4683650  14.9828887  63.6387062  11.5179992  14.6309412
  37.7305269  72.2757530  33.3077407  38.0330753  72.6770878  34.1223717
  36.7860293  72.1754789  33.4264922  34.7449970  51.0030746  27.2859478
  34.1937065  50.3123569  26.9182301  34.1306329  51.6951799  27.5304437
  46.3225174  41.7884302  12.7194726  45.8363867  42.4743223  13.1771457
  45.6814814  41.3948059  12.1275544  50.7168007  17.4793053  22.5502658
  51.3151741  17.1102929  23.1998897  50.9619141  17.0526528  21.7292190
  54.9353647  70.5813742  35.9358096  54.5843506  69.7222710  36.1702609
  55.8501291  70.4128265  35.7099128  36.6109729  75.7047224   7.6461369
  36.6852379  74.7980595   7.9439360  35.7598758  75.7445955   7.2099286
  77.0460844  74.1822672  35.5411482  76.5444660  73.6198759  34.9509549
  76.3882923  74.5729303  36.1164069  16.3318110  10.9465265  60.5967903
  15.7705617  10.1843178  60.4544210  17.1665096  10.7080078  60.1935339
  13.2397413  22.1067977   7.8620207  12.7859795  21.9717979   8.6939508
  14.1188979  21.7580843   8.0093783  74.1454792  56.0436392  35.7974362
  75.0760412  55.8711624  35.6541085  73.7901545  55.2068377  36.0969996
  30.4908705  58.8329506  10.8145320  30.2369308  58.0499649  10.3259790
  30.6713200  59.4879532  10.1402593   4.2608905  32.5357461   7.8290105
   3.3886117  32.8666663   7.6148760   4.2468590  31.6218972   7.5445586
  14.7740340  17.6607096  14.9841702  15.6703877  17.5863469  15.3116643
  14.7924888  18.4240556  14.4069409  24.6376109   6.8313658  60.9424591
  24.1240430   6.5635312  61.7045259  25.2528667   6.1114317  60.8032227
  69.1978073  74.5856190  22.9436707  69.1727352  74.6431780  21.9885325
  68.6462641  75.3089237  23.2417679  27.3485446  53.8923025  32.6376724
  27.5445986  54.6239710  33.2228708  28.2060957  53.5419273  32.3966765
  24.2699838  70.3553581  23.1757808  23.9834213  70.7952547  23.9761567
  25.0359368  70.8532047  22.8899550  63.9995241  15.2278018  21.1240959
  64.5700359  14.5426965  21.4724922  63.9057159  15.8507860  21.8447351
  33.3599949   2.1024300  48.8057947  32.6701117   1.4603686  48.9732742
  32.9569077   2.7384681  48.2148600  58.3764935  71.9795179  63.4393311
  58.7799168  71.1397505  63.2196236  58.6667442  72.1579313  64.3338394
  30.2890110  22.1555328  20.0089121  29.5648384  22.2804475  20.6222630
  30.6403756  23.0351424  19.8708403  73.3102608   4.0182722  61.4449406
  73.8743162   3.9513788  62.2153902  73.6977053   4.7222745  60.9248447
  13.1429613  57.2245598  15.7615221  13.1739056  56.4784336  16.3603270
  12.5154221  57.8266907  16.1613572  54.5659828  11.7730260   6.4979976
  54.3836069  11.7675889   5.5583483  53.7136745  11.9243586   6.9065320
  47.7468586  13.0576098  14.7809327  48.5769939  12.8813970  15.2237070
  47.9361677  13.7960970  14.2021155  34.0605521   0.7794413  54.5756531
  34.1934776   1.6913955  54.8343086  34.7811532   0.5937772  53.9735746
  32.2209501  28.6582160   5.1399857  31.9824314  27.7348018   5.0584531
  33.1531024  28.6465335   5.3572083  66.4511919  22.7049708  55.8053684
  65.8456182  22.5687504  56.5340328  67.0362997  21.9480205  55.8354950
  14.6709180  33.0361056  48.3598232  15.1546645  32.2177196  48.4714603
  13.9421797  32.9696655  48.9768791  37.5087500  38.7989831  34.5838308
  36.8694186  38.5002065  35.2305317  37.5613880  39.7451973  34.7185111
  57.8154278  16.4864373  44.1363430  58.6759758  16.9054294  44.1480732
  57.9630518  15.6251335  44.5269775  36.6147113  30.4075861   3.1208202
  36.9689059  30.8888745   2.3730634  37.1875644  29.6457481   3.2084155
  67.9679441  75.1416779  65.9722996  67.9066181  75.2548599  65.0237989
  67.3437691  74.4437361  66.1710835  35.7358241  38.3983946   0.6204463
  35.3509188  39.2745304   0.6420412  36.2272978  38.3324575   1.4391877
   6.4342779  13.3958757  40.9978104   5.7577074  12.7317834  41.1299658
   7.2400129  12.8949654  40.8708763  51.3762903  38.5414743  18.4412408
  51.2357950  38.2988739  19.3564665  50.9439754  37.8493643  17.9409218
  13.5304105   2.0466192  27.3596215  14.3057787   2.1967494  26.8187904
  12.8975081   2.6978034  27.0569253  68.6685419  57.2169113  55.2621508
  67.7702951  57.1890402  55.5917025  68.7183142  56.4905787  54.6407080
  49.4998360  48.5983658   6.3792545  49.7126102  48.0507755   7.1349663
  48.7694883  49.1417122   6.6752309  57.9965448   3.7374035  49.6461344
  58.0375719   3.0598032  50.3209734  57.6413727   3.2895654  48.8783312
  19.5640481   4.0195400  56.6998339  20.1692200   3.4626549  57.1896076
  18.8576031   3.4305012  56.4348793  78.7124443  63.4948826  66.1713219
  77.7834368  63.6403179  66.3502836  79.1238403  64.3432474  66.3364458
   4.6314955  16.3839114  64.0363550   4.0647388  17.0036113  63.5770130
   4.0354079  15.7081890  64.3593216  81.0837269  71.0941744  46.8657637
  81.0578823  71.6424561  46.0815763  80.2394199  70.6432295  46.8706656
   5.2436465   3.8553882  29.2390299   5.2613980   3.0953026  29.8205686
   4.5272860   3.6746469  28.6304307  29.6632743  52.4841738  32.2026682
  29.5783710  51.5383387  32.0825839  30.2814102  52.7571487  31.5247154
  38.4513569  21.8780398  37.9289556  38.0486107  21.0264111  37.7593851
  37.7116680  22.4689603  38.0700397  40.1324272  28.3488584   9.2032307
  40.4667187  29.2165613   9.4303328  40.8899307  27.8867674   8.8442183
  32.0875931  31.5909362  15.6086242  32.5777721  31.1585689  16.3079202
  31.1692953  31.4257431  15.8223307  42.7039766  41.5922022  17.6048148
  42.1144104  40.9537458  17.2035480  42.2656775  41.8454313  18.4172189
  18.7864506  35.5099869  49.5323181  17.8690648  35.2399611  49.4908524
  19.2377555  34.9182034  48.9303637  20.1450372  44.6784258  28.6701632
  20.2125835  44.1261625  29.4490552  19.2394900  44.5719194  28.3788323
  11.2489212  44.2499399  21.3437343  11.9098926  44.9071741  21.5614295
  11.5639305  43.8533449  20.5315065  57.9140186  60.0275612  14.2661476
  57.2254515  59.4443035  13.9469028  58.2391596  60.4668951  13.4803355
  20.6511164  34.9605250  21.0547447  20.4896688  35.6762147  20.4399633
  20.2500510  34.1954684  20.6423521  14.9394977  74.4022560  56.0269880
  15.6223917  74.3689632  56.6968966  15.3569615  74.8321629  55.2805710
  53.1755924  23.0757070   9.9805146  52.7066469  23.0639052   9.1461408
  53.6915779  22.2694921   9.9766874  48.2013512  24.2221427   1.6671659
  48.1853867  24.5168161   0.7565924  47.9457903  24.9935079   2.1730468
  37.6443958  27.1256757  13.1836927  37.7440286  28.0419421  12.9253066
  37.6558280  26.6414070  12.3581111  26.7746615   8.8244933  62.9530478
  25.9239721   8.8651198  62.5161171  26.5869451   8.4349513  63.8070107
  12.4535310  61.5571880  18.6656153  13.0144417  61.3183641  17.9276621
  11.6227806  61.8101215  18.2629848  75.7802773  60.7761860  43.7640524
  76.1864710  60.4936028  42.9446697  76.2440300  61.5806866  43.9962959
  74.2642927  12.0061505  67.2794628  74.4162893  11.3602901  67.9693842
  74.2839336  11.4988852  66.4679670  21.3829923  26.3548899  21.9957280
  20.6933498  26.9856477  22.2025347  21.9513011  26.3602543  22.7659416
  13.8745272  74.4472075  41.6046238  14.5485938  74.3181372  42.2718620
  13.0478764  74.3531322  42.0779419  66.5236807  38.3387709  54.4302368
  67.0753479  39.1148758  54.3324804  65.6879902  38.5876560  54.0353823
  68.9435530   3.9637065  63.4483624  68.2851028   3.5822603  64.0290308
  68.8166189   3.5129756  62.6135206   8.4235543   4.2229795   3.4023118
   7.8212768   4.3391028   2.6674587   8.6421800   3.2911932   3.3878675
  31.7824364  44.0007734   2.2513503  30.9257412  43.7916946   1.8790741
  32.1571732  44.6402693   1.6456686  12.7765501  24.6500373  54.3145084
  13.3549559  23.8951921  54.4235229  12.4111843  24.5468879  53.4358168
  64.9306870  42.8720951   9.3938363  64.7993422  43.0293179  10.3288567
  65.1700497  41.9470024   9.3378180  32.3907113  13.1359458   3.8098603
  32.4499798  13.1555307   2.8546977  33.2470369  12.8185058   4.0965095
  19.3285823  38.9902925  18.2430720  18.9989221  39.2918277  19.0896130
  20.2807999  39.0457702  18.3233011   1.7431977  19.1471934  -0.2314585
   1.0055061  19.7283030  -0.0461061   1.9745265  18.7749088   0.6194955
   4.9645928  77.1457577  48.9977646   4.1588819  77.3806334  48.5374451
   4.6714249  76.6135836  49.7374105  11.6490269  69.1878796  54.8397636
  12.3769474  68.9578247  54.2623234  11.8119419  68.6896276  55.6406641
  21.8816185  27.5371885   4.0683454  21.8397427  27.6323199   3.1168053
  21.5189147  28.3556890   4.4070733  51.7745781  34.9407506  12.6218164
  51.3572645  34.1163206  12.8716004  52.2822762  34.7248530  11.8395972
  73.2623148  41.1894751   5.2928966  73.3918858  41.4043951   4.3691802
  72.3375702  41.3761950   5.4548156  23.4779096  65.5493021  20.7990670
  24.0694308  64.8263502  21.0080528  23.9490318  66.3333893  21.0809875
  22.1596694  25.4832792  55.5618191  21.7042351  26.2547994  55.2248144
  22.6952195  25.1817322  54.8280001  13.6420131  33.1968784   6.8801832
  14.3810821  33.1078911   6.2784445  14.0239441  33.5685301   7.6753151
  55.5005884  26.1149526  27.5272584  56.1259174  26.8084812  27.7375174
  55.7965040  25.3623199  28.0393243  46.4735699  13.2030523  27.0734167
  46.3910723  12.5621903  27.7796173  47.2949123  12.9751348  26.6378951
  39.8388648   1.2879334  17.9030371  40.5926752   1.6025433  17.4040163
  40.0879526   0.4073004  18.1835246  45.8287144  44.3929434   4.7815186
  45.8681440  44.9030447   5.5905145  45.5677271  45.0253773   4.1120803
  52.2617817  39.6457219  11.5332758  52.4071360  39.8419333  10.6077456
  53.0877590  39.2634177  11.8296528  54.6234846  53.5322428  63.3804417
  55.0159311  52.9636431  62.7179337  54.8482084  53.1191397  64.2141533
  15.6450582  70.2985096  35.3333569  15.8154607  71.2360382  35.2426291
  14.7100830  70.2061892  35.1502419  40.1069689  31.3724589   1.5315630
  40.4074097  30.7171941   0.9018064  40.4598761  32.1995115   1.2034221
   9.5652455  38.5774684  54.4112825   9.3428433  39.3054867  54.9915886
  10.2228057  38.9377332  53.8162565  26.6776443  70.6798506  21.4433646
  26.2183619  69.8400354  21.4457655  27.5689173  70.4661989  21.7194438
  80.9893703  57.4861193  38.2658744  80.8510685  56.6763067  38.7571049
  80.3418255  58.0951405  38.6208510  39.8827362   4.4822395  58.6952877
  40.5498219   4.2371741  59.3365145  40.3255081   4.4104636  57.8496933
  20.3962874  36.3055944   8.3079356  20.2160645  35.3708792   8.4082192
  20.9680915  36.3584566   7.5421166  52.4076128  54.5728254  18.6719620
  53.0318308  53.9319754  19.0123987  51.5584040  54.1352320  18.7318754
  40.7515430  15.7733107  17.1582460  40.8180046  14.9948740  17.7112830
  40.6557989  16.4983749  17.7757788  79.7564077  49.9543715  49.9718475
  80.5221462  49.4978762  49.6232891  79.5200443  50.5817604  49.2886591
  59.6908998  43.5012865  66.3224220  59.5629263  42.5719833  66.1320400
  59.2364264  43.9558792  65.6131792  65.7032967  21.2130857  15.0894332
  66.3250542  21.5436196  14.4410563  64.8450518  21.4644265  14.7481465
  72.9056263   5.3894389  55.0437832  72.8679943   5.8123648  55.9016562
  72.9154587   6.1148483  54.4193506   7.6320893  42.6034355   9.6805942
   6.8511015  43.0332518   9.3319601   7.3139441  42.0995712  10.4296863
  37.4428821  13.3335292   6.6202229  36.6533852  13.5656023   7.1091682
  37.1244025  12.8071499   5.8869249  74.1994238  70.3252411  67.1969795
  73.4615135  70.9279299  67.1048164  74.9633026  70.8404446  66.9375753
  59.2094564  56.7993069  15.7114744  58.5404301  56.3382101  16.2174571
  59.1914940  57.6943588  16.0502827  34.8266029  23.6083508  15.4269683
  35.1686549  24.4655061  15.1729631  34.5516562  23.2064056  14.6029067
  33.1425834  57.5051451  59.1359186  32.9289198  57.2775269  58.2310581
  32.7775359  58.3819628  59.2549181  19.3410063  34.3244171  10.1411974
  20.1571274  33.9708161   9.7874427  18.7937224  33.5545564  10.2962041
  33.0333734  40.0606060   5.5923975  33.1635785  40.8799982   5.1150364
  32.2428131  40.2087593   6.1113346  45.1358128  45.5983877  42.4690914
  44.8908997  45.1346445  43.2698393  45.7804918  46.2456703  42.7548313
  56.4752960   4.8622712  64.5765877  55.5678415   4.8610684  64.8811531
  56.8606663   4.0788427  64.9689674  58.6956263   2.1397702   2.1179777
  58.7684631   1.4129269   2.7365449  59.1393089   1.8282785   1.3290851
  63.6233521   3.2535759  22.0747089  62.9762030   3.9142951  21.8279672
  64.4369936   3.5516521  21.6680503  54.5032740  69.0763521  45.6138611
  53.7980938  69.4784164  45.1066160  55.2997065  69.5011902  45.2953625
  71.5700626  18.9771438  15.6151783  71.0247087  18.4195268  16.1700499
  72.4680948  18.7345839  15.8408678  54.7867537   0.4382172  17.6364076
  54.5421410   0.5576812  16.7187345  54.9914598   1.3203537  17.9465067
  23.4118342  75.2526522   8.6975151  22.5526357  75.4847717   9.0498304
  23.2231188  74.8603153   7.8450537  58.8383961  56.6697073  66.4508486
  58.6630726  57.5719500  66.7181444  58.3325768  56.5556812  65.6462479
  24.8333406  55.3155088  24.5423985  24.7466516  54.9793863  23.6503577
  25.3555131  56.1122131  24.4484591  45.9554005  15.2769363  57.4585104
  46.3640690  15.8079851  58.1420374  45.7302952  14.4557106  57.8957176
  53.3288002  58.8472891  19.0367055  52.8702879  58.5003519  18.2714427
  53.8960934  59.5335197  18.6852825   0.2164330  38.4814501   7.6893991
  -0.2925662  37.6741004   7.7624571   1.1259641  38.1874371   7.6389945
  60.1105928  67.9579926  36.4910936  60.7879162  67.3173332  36.7079282
  59.2866659  67.4871540  36.6163445  75.8845091  18.9070487  67.4231243
  76.7119217  19.2882085  67.7169561  75.7633829  19.2508149  66.5380335
  56.7640066  51.2902260  23.0711174  56.1573076  51.8116045  23.5967731
  56.6672182  50.3991652  23.4070826  17.7688491  35.7069945  39.5248151
  17.2755063  36.4996362  39.3137193  17.6273096  35.5794859  40.4628658
  15.3456390  41.1473894  16.4084804  15.9271359  40.3902102  16.3393629
  15.8719301  41.8140697  16.8498266  62.0125580  61.1385155   7.2255772
  61.7422199  61.5060711   6.3841188  62.5553751  60.3847647   6.9943982
  58.7707090  48.0552721   9.3646508  59.0543222  47.1411657   9.3503892
  57.8896713  48.0268955   9.7377503  80.8743763  61.5450954  40.7296562
  80.4029560  62.1021938  40.1102734  81.7921925  61.7970467  40.6278610
  70.7915926  73.3493853  47.4118614  71.5897942  72.8486490  47.2434330
  70.7544184  73.4273195  48.3651590  67.5066805   3.3713323  44.9665833
  67.6337385   3.0828020  45.8703756  67.8680420   4.2574400  44.9450016
   9.4296229  47.3684740  22.7822161   9.2741311  46.8466139  21.9949961
  10.0949121  48.0048418  22.5201797  66.7730141  69.7248459  28.2570934
  65.9016800  69.9243832  28.5994291  67.3743486  70.1324511  28.8803816
  63.8101673  26.8196583  47.2338581  63.3550453  26.1321378  47.7200794
  64.2434692  26.3584089  46.5157127  75.3477383  48.3179283  21.4163232
  74.7659445  48.1846523  20.6680036  76.2136793  48.4411860  21.0274982
   1.4735955  39.8775625   4.2419812   1.2808758  38.9533424   4.0841594
   0.7924303  40.1637363   4.8505440  62.4961281  58.8232994  27.1732855
  63.2343435  58.4012032  27.6127172  61.8345690  58.9222336  27.8579688
  17.7806258  25.4337072  66.9922781  17.3540449  25.4500532  66.1355400
  17.9797554  24.5096779  67.1430969  74.7050619  53.1626368  13.8837779
  74.9427938  53.4421968  12.9997182  74.1082287  53.8420677  14.1974628
  17.5324082  16.6589117  14.7006929  17.5494051  15.7935810  15.1095283
  18.2657969  16.6476858  14.0856755  76.2665606  53.9453983  65.1447153
  75.6405640  54.0120173  64.4236612  77.1171427  53.8524818  64.7156286
  26.1831212  56.9589472  12.2586524  25.2453685  57.0385647  12.4333298
  26.5493131  57.8012800  12.5281298   0.4601962  55.4074144   2.9063302
   0.4884771  54.4765377   2.6852027   0.9289961  55.4702616   3.7385011
  26.8520188  60.6571484  21.1000156  26.9774914  60.4715633  22.0306325
  27.7001190  60.9891605  20.8055258  71.8551207  43.5269690  12.3707199
  72.4719763  43.2261753  11.7034543  71.2948084  44.1541338  11.9136071
  44.0248394  41.3458014   7.2352099  43.4290028  40.6000137   7.1644288
  44.2605734  41.5507460   6.3304120  27.3903537  55.5280018   7.1754688
  27.0949364  54.8840094   7.8190792  27.2899365  56.3713264   7.6169956
  63.4990597  51.7141390  19.2306793  63.7166357  50.8149338  19.4762838
  64.2800045  52.0348454  18.7795627  25.3020716  56.9278955   6.0412318
  25.9727430  56.2490797   5.9661180  25.6390953  57.5246716   6.7094409
  31.0735679  10.2120125  62.1345139  30.2252865  10.5847776  62.3747158
  31.3785148  10.7579315  61.4097977  68.0984020  58.1141043  22.6481557
  68.3798170  58.7050915  21.9497538  67.8519344  58.6945438  23.3682775
  75.1619387  50.5225134  26.1578846  75.1790667  50.4943562  25.2012515
  74.8346090  49.6611595  26.4170313  43.6286020  51.4547253  11.5081382
  44.5553589  51.2156153  11.4948034  43.6195707  52.3899031  11.3041878
  54.4179630   5.1427287  58.5160494  54.8355961   5.6019473  59.2447042
  55.1472855   4.8220974  57.9854679  25.7067943  70.4521036  14.2623520
  25.7462049  70.1636219  15.1741958  25.1161695  69.8288774  13.8392854
  50.5130911  48.5832548  66.8258953  51.4512920  48.3949423  66.8493032
  50.4591990  49.5378542  66.8713665  54.9783611  40.0309896  12.6432300
  55.2212954  39.6120930  13.4689045  55.3318644  40.9178972  12.7115190
  12.2850990   3.5505393  22.4947810  12.7717531   4.3678352  22.6016831
  12.9561460   2.8681731  22.5122499   1.3196434  35.7038641  51.2196064
   1.3688444  36.4242887  50.5912733   1.7537428  36.0398889  52.0037460
  57.3913479  -0.2703532  16.7976809  57.9810905   0.4541719  16.5891182
  56.5677309   0.1532243  17.0394790  23.6597109  30.2950478  30.8529377
  23.2800865  30.6734943  30.0599098  24.4339395  30.8303523  31.0268664
  78.3254099  46.7018080  64.2511892  77.7799368  46.3800144  64.9689198
  78.2538843  47.6548338  64.3046904  54.0950155  63.5693169  37.4660277
  53.9120102  63.2087088  38.3336139  53.2508135  63.9030409  37.1624136
  36.5918922  52.5369883  18.3302629  35.6463718  52.4615860  18.4588611
  36.7627263  52.0551300  17.5210285  45.8367586  61.5466881  15.4496145
  46.5098476  61.1565065  14.8919952  46.3084126  61.8269253  16.2339890
  23.1404328  17.9042077  49.5903730  23.1643009  18.6546481  48.9966583
  22.7221584  18.2394266  50.3834105  58.5055828  65.8779907  16.0556722
  59.3628979  66.3029385  16.0812855  58.6582565  65.0082111  16.4250052
  81.9563293  54.6105051  49.4205093  82.1541023  54.1267014  50.2224159
  82.3389530  54.0810823  48.7208366  52.0288563   6.4367533  57.5546598
  52.8524733   6.1322141  57.9356289  51.8673229   7.2805947  57.9766417
  36.7642808  55.1208830  37.9590535  35.8692265  55.4223156  38.1147718
  36.6660833  54.3734121  37.3692465  24.2419683  14.0059329  66.9394001
  23.4305631  13.5943462  67.2368129  24.9341070  13.5304643  67.3988593
   8.2071429  71.1357069  37.8001904   7.5636363  71.4267921  38.4462547
   9.0094990  71.0020065  38.3047509  46.6035986  68.0757284  23.6483550
  46.7227983  68.4217596  22.7638865  46.0549688  68.7254286  24.0878105
  71.4162254  26.1337638  52.6138115  71.5218544  26.5322495  53.4776878
  70.8124399  25.4052091  52.7583170  23.7880659  49.7058773  17.2957230
  24.6454740  49.5936489  17.7061975  23.8887548  50.4770613  16.7377198
  64.8212481   9.4114524  62.7377462  65.0321960   8.5868889  62.2997618
  65.4922247  10.0226545  62.4336767  79.7748375  62.8423548  51.9369364
  80.3357601  63.2979536  51.3092136  78.9508390  62.7083921  51.4686251
  21.2528968  18.7642598  46.6978121  21.1020851  17.8638732  46.9855452
  21.3485384  18.6992145  45.7476234   8.3593750  57.6808310  24.4196463
   9.0142572  57.0089197  24.6091080   7.5685668  57.1889257  24.1985464
  39.6622133   6.6527909  63.1508207  38.9874935   6.0052001  62.9468346
  39.5327282   6.8494785  64.0786028  35.3142333  29.7731280   8.7689674
  36.1927533  30.0672340   8.5282612  34.9438286  30.5044675   9.2631078
  54.9560642   9.2598051  53.0556965  54.6876574   8.9831787  52.1795273
  55.1743603  10.1866317  52.9578638  75.0356913   5.7761979  11.7896175
  75.2692366   5.8460635  10.8639789  74.6967888   6.6419983  12.0171368
  65.0214052   4.7574452  14.5008826  64.9027681   4.1833028  15.2575326
  64.1662550   5.1690018  14.3760979  50.4699945  61.2781048  28.7243414
  50.7122612  62.1690750  28.4719253  49.5229864  61.3162518  28.8583255
  56.1683512  63.0330133  14.0192127  55.8117485  63.1723261  13.1419098
  57.1149158  62.9796600  13.8873088  19.1045845  14.1823626  52.9090977
  19.8760188  13.8095641  53.3358812  18.9368188  14.9954951  53.3854389
  48.2114840   6.0754776  43.4397697  48.2669401   5.2424669  42.9715300
  47.8621101   5.8437419  44.3002748  73.9205503  45.6242037  30.0457525
  74.7683668  46.0647583  29.9878788  73.9085817  45.0284386  29.2966533
  39.0681887   9.7588801  50.5583954  38.4276533   9.7505748  51.2696457
  39.9020362   9.9468607  50.9891987  41.1470413  46.0945082  12.6235771
  41.9966984  46.5046024  12.7852607  41.2948370  45.5277443  11.8664968
  49.9892569  76.5235901  45.6752586  49.9317932  77.2189903  45.0200129
  50.8556509  76.6344309  46.0668039  21.7153072  44.7360754   2.4536929
  21.0241270  45.3442192   2.1916506  21.7621398  44.8225832   3.4058249
  33.7511492  13.0915880  43.9197683  33.5053015  12.1758878  44.0512371
  33.1295824  13.5855937  44.4544125  30.9390855  57.4768448   0.0788448
  30.6010246  56.5818691   0.0477664  30.8339286  57.7409887   0.9928475
  21.1252141  51.9829464  12.5593543  20.7913828  51.1096239  12.3541653
  20.8720469  52.5188351  11.8077159  19.8194432  55.4948711  39.7569919
  19.7952652  56.1880398  40.4166603  19.5091903  55.9161329  38.9554238
  23.3102250  62.3644209  58.2857561  22.8003216  62.5290346  59.0789366
  24.2164612  62.5316763  58.5445881  21.5692997  50.9033775  17.9497683
  22.3504257  50.3543997  17.8812039  21.1572051  50.6321812  18.7700510
  51.4607859  62.9338217  35.2531075  52.1638489  62.6700878  34.6594954
  51.6416121  63.8540649  35.4446363  31.7567492  10.3935945   1.5678261
  32.2966695  10.5002081   0.7846586  32.3558974  10.5579817   2.2959955
  29.8863673  55.8921623  30.2036500  30.6069613  55.8540201  30.8325553
  30.0153875  55.1258230  29.6448040  35.1807332  44.7899389   4.7516522
  35.7296085  45.2732038   5.3692484  34.8882318  44.0214825   5.2417010
  74.2351866  71.5043211  55.4266596  74.6530628  72.3455095  55.6110811
  74.8566628  71.0472870  54.8599863  77.4213934  32.2374797  20.7227278
  77.4284410  31.9648194  21.6402459  77.1028900  33.1398964  20.7434750
  69.7587633  54.1846228   8.8062978  70.0847530  54.9073839   8.2700372
  69.8324871  54.5019674   9.7063464  47.6958799  17.1378088  63.5055590
  47.1287537  17.9085755  63.4828854  47.7838039  16.9324398  64.4363260
  43.7579823  36.5315342   3.2589990  43.7687302  36.8957543   2.3738658
  42.9642153  35.9974122   3.2885900  17.9218495  16.4921188  63.2879829
  18.8349724  16.6295063  63.0358648  17.8494608  15.5468380  63.4200287
  22.1015239  66.1747122  30.1944542  21.7380548  66.4645004  31.0311985
  22.7492476  65.5110693  30.4316640  27.4753237  45.4278612  24.7910953
  28.1459570  45.8101606  24.2251205  27.4291849  44.5104742  24.5218253
  25.7381701  19.6723366   3.2960197  25.1628160  20.3090930   3.7199765
  25.4657745  18.8275754   3.6543655  66.0338497  67.4365044  30.0638199
  65.0929976  67.5914383  30.1476622  66.3162136  68.0422640  29.3785787
  80.7528782  46.0654163  23.8879728  81.6735554  46.1469984  23.6390972
  80.7759380  45.7968855  24.8064446  43.8676596  67.2273016  62.0658779
  43.8900661  66.2863255  61.8918324  44.1794777  67.6284170  61.2546444
  76.7492199  74.2621469  66.8004227  77.6736927  74.0922165  66.9812632
  76.4313984  73.4539223  66.3979340  64.7844458  65.0705862  47.1988106
  64.8830414  64.1501904  46.9551229  65.6766033  65.4173183  47.1909857
  23.0641365  20.1539946  47.8703165  22.9543018  21.0263181  47.4918747
  22.1904159  19.7648525  47.8327131  41.1123991  60.6925011   1.3497970
  40.9368086  60.6818533   2.2906935  41.0920048  59.7709227   1.0919011
  30.8552504  42.6592350  28.0654812  31.2089705  42.6073503  28.9534140
  31.5433145  43.0900764  27.5583601  65.7052279   6.2631845   1.1720712
  65.7583618   5.3186727   1.0261051  64.7705841   6.4357871   1.2855956
  71.4468336  62.1587420   7.4178481  72.2595644  61.6799641   7.5805467
  70.7634783  61.6068411   7.7981991  33.3492565  26.1311626   6.1354399
  32.8220987  26.1490965   6.9341981  34.0634871  26.7451763   6.3060033
  24.8015094  24.6028781  41.0127401  24.9778748  24.9790335  40.1503992
  25.4820776  24.9690580  41.5775204   7.4203414   1.3483576  64.3361282
   7.8499842   1.7781647  65.0756550   6.9336575   0.6241810  64.7297478
  36.0483980   5.7522267  59.2710638  35.7906175   5.2197903  60.0235844
  35.9964061   6.6543329  59.5868683  25.6798267  26.3191676  25.5659413
  26.4153719  25.8656526  25.9776759  25.3807092  25.7192421  24.8826766
  68.3274126  71.4966202  65.5474949  67.3802090  71.5759611  65.4346323
  68.4923315  71.8303204  66.4293528  62.9135847  68.0963516  14.5394921
  62.5292778  68.9028025  14.1957319  63.7648869  68.3650017  14.8849499
  41.6856289  21.9003987  17.7306223  41.9479799  21.4664221  18.5424519
  42.0501566  22.7825856  17.8020084  43.8584471  31.5270758   7.6787943
  44.2548132  31.1033702   8.4401095  44.3000364  32.3742390   7.6192355
  36.4430475  31.1911249  15.5382133  37.2627950  31.6793609  15.6148267
  36.6024923  30.5646157  14.8323119  47.4109793  17.3559475  56.4324951
  46.8687916  16.5671229  56.4367104  48.2976246  17.0362651  56.2654972
  47.0155096  57.6988268  23.2156444  47.6144886  58.4323692  23.0764675
  46.1614895  58.0311966  22.9392242  31.6485739  51.0068083  16.2707675
  31.5129232  51.9438601  16.4113307  31.3307929  50.8495140  15.3816640
  49.2842579  58.2435179  19.9780881  49.6087027  57.9690599  20.8357835
  49.8191118  57.7552080  19.3522131  15.7741690  21.8437243  62.3765421
  15.9979141  22.7734232  62.3337793  16.3882089  21.4786553  63.0136538
  73.5121632  39.8505354  -0.0759196  74.2469740  40.2685881  -0.5248312
  73.9037466  39.4439363   0.6971068  71.8658257  12.9296565  13.6858320
  71.3193369  12.2418392  14.0659499  71.2547398  13.6395371  13.4886694
  60.5039835  66.8066502  61.5950775  59.8072910  66.9000912  62.2447872
  60.1094484  67.1062899  60.7760572   8.6690891  76.1990309  40.4761600
   8.8983822  77.0529795  40.1095152   9.0402043  75.5667067  39.8608041
  56.7175102  54.0309620   5.1689380  57.4530315  53.6638165   5.6592882
  57.0984268  54.7551346   4.6722403  38.0072594  48.8993025  16.4072549
  37.7429867  48.2530499  17.0620430  37.9973793  48.4191608  15.5792487
  53.9568663  54.4113731   5.5915958  54.9041843  54.4949818   5.4828179
  53.8485193  54.0309906   6.4632618  51.5215540  56.1618280   2.2993177
  51.3529015  56.8240309   1.6290399  50.7334852  55.6185293   2.3028944
   1.4469205  28.1516290  64.8288393   1.0196660  28.8350677  64.3125105
   2.3603304  28.4317064  64.8877525  46.0552835  30.5399251  11.0011995
  46.5522003  29.8229003  11.3951242  46.5470028  31.3277817  11.2329876
  49.3105030  25.7301140  17.7901888  50.0125885  25.1610303  17.4748313
  49.4156981  26.5396905  17.2904348  42.8434372  62.5005770  10.3625441
  41.9312954  62.7596617  10.2317691  43.1149101  62.9696941  11.1515069
  42.9981661  15.4060543  37.1641636  43.7065172  14.7909975  36.9739795
  42.2182846  14.8565483  37.2420168  41.6907120  68.8751984  24.2611837
  41.0295200  69.4969559  23.9570880  41.2454510  68.3631611  24.9363041
  22.9095149  15.8234954  14.5378625  22.6429200  16.7253327  14.3594015
  23.7846756  15.9030795  14.9173248  66.2181759  76.0592747  60.4954529
  65.6179476  76.7021656  60.1177692  66.3028193  75.3854227  59.8209190
  25.5581307  62.1767569  17.8917193  25.4973197  61.7202806  18.7308645
  25.8973789  61.5186262  17.2850871  59.2114162  13.6636519  60.0370359
  59.2087364  12.7550387  59.7359610  60.0140238  13.7427783  60.5525827
  35.8158350   7.2222245   7.6612097  35.5783963   6.4529127   8.1789094
  35.6220317   6.9721186   6.7578167  13.1621170   8.9755619  65.2856112
  12.7447283   9.2344379  64.4640255  13.5131598   8.1023103  65.1111603
  21.8542147  41.0724163  49.1757393  21.0262227  40.6243849  49.3487310
  22.2481799  40.5784225  48.4567165  80.8964920  75.8780289  62.2473812
  81.4297009  76.6589069  62.3962069  80.5195808  75.6784773  63.1043243
  44.4901180  72.7014923  45.9048796  43.8902235  72.3552227  46.5655279
  44.8924398  73.4631157  46.3223791   5.9013385   7.6334614  43.8149595
   6.5670431   7.7265173  43.1334829   5.1139957   8.0238199  43.4355593
  57.6359892  22.3303843  17.4008429  57.7545166  22.8149080  16.5838850
  56.7254400  22.0363331  17.3749650  48.5536194  52.8101254  18.8921905
  49.4948721  52.7995539  18.7185192  48.3160925  51.8871355  18.9811075
  69.2412424  76.8337154  41.9095755  69.6264362  77.5394440  41.3901520
  69.2581606  76.0725880  41.3293791  68.3762980  62.1831179  61.4072275
  69.1214037  61.6053152  61.2423277  68.3833885  62.3186255  62.3547602
  48.9120150  47.2723866  11.5757751  48.4702539  46.5702200  12.0533133
  49.7321510  47.4060345  12.0508981  29.8467684  43.5061693  11.8226898
  30.0142837  43.1973219  12.7130735  28.9953423  43.9402962  11.8759751
  50.4756260   5.2778012  24.6027899  49.6133995   5.2448177  25.0171590
  50.8625174   6.0940236  24.9195361  22.1163368  42.3738003  54.4942665
  21.3219428  41.8528175  54.6115160  22.2101855  42.8556824  55.3159809
  55.6552267  69.0628719  23.8700294  55.6695747  70.0057602  24.0342975
  56.3063288  68.9298391  23.1811166  24.1412401   0.6472487  66.1070585
  23.2869053   0.9432409  65.7928371  24.7335267   1.3728747  65.9098387
  64.9287510  61.8034983  40.9746504  64.0205240  61.5410471  41.1245728
  65.2504253  61.1877203  40.3161860  22.1547365  17.5559306  23.7465119
  21.2075400  17.4939597  23.8698411  22.2739291  18.3252668  23.1896043
  45.1654005  14.9651706  67.0806170  44.9024820  14.0497446  67.1760082
  44.3760014  15.4102135  66.7723703  56.8418312  57.4284363  19.8038054
  55.9447861  57.1272850  19.9481916  57.1428251  57.7076960  20.6684709
  74.2812824  69.3186617  24.6180511  74.0611887  69.7756338  25.4298210
  73.5490417  68.7190962  24.4746137  12.2063744  37.4633336   9.0070355
  12.8055787  37.8074980   8.3446640  12.7698243  37.2448230   9.7493356
  11.0123456  15.5388236  54.0128708  10.9623516  15.0099015  54.8090982
  10.4304767  16.2800777  54.1808081  79.5450306  49.9848890   5.1616424
  80.1983929  50.4464340   4.6359766  78.7581635  50.5258083   5.0947046
   8.1330484  63.1968546  25.1951814   8.3483464  63.0116701  24.2810774
   7.5360829  63.9439631  25.1540303  49.4531441  51.5019798  15.6713521
  49.6099806  51.7842722  14.7702730  49.3791437  50.5493402  15.6144547
  74.8775768  19.3542421  33.0113864  75.4890442  19.3332624  33.7475276
  75.2230930  18.7089670  32.3945642  76.0184765  17.6058865  54.7909689
  75.2093601  18.0062056  55.1092577  76.0727167  16.7718613  55.2575445
  35.2360821  55.0592089  15.5908358  35.6606364  55.4681015  14.8366499
  35.0955915  54.1509581  15.3233135  61.2845039  52.4670744   0.7247617
  60.3410482  52.4113655   0.5730352  61.6089869  53.0209494   0.0147144
  76.4393044   0.1850244  57.0146894  76.4416885  -0.5586737  57.6173019
  77.3650694   0.3898179  56.8833256  44.7873592  66.0872173  31.3861656
  44.0244770  66.1092424  31.9638824  44.4522333  65.7386446  30.5600786
  58.6742306  62.4505281  52.1821451  57.9636717  62.4258757  52.8230286
  58.2978773  62.0624495  51.3922167  14.0748787  21.8610048  46.3899422
  14.4949651  22.6687193  46.6855049  14.7980070  21.3120294  46.0867214
  50.9500933  51.9561052  17.9766011  50.5665207  51.6885233  17.1414340
  51.4389229  51.1882210  18.2726300  78.6209726   3.0162048  19.6603394
  78.6155033   3.2399613  18.7296760  77.6973629   3.0143800  19.9116731
  44.2774200  15.7410705   3.5595480  43.7045193  16.0600889   2.8622380
  43.7182951  15.7156169   4.3360543  41.0191727  65.6763887  42.0577383
  40.7610178  65.2320194  41.2502003  40.2564907  65.5947924  42.6303530
  70.6295204  51.9593954  21.3088107  71.5825653  52.0481873  21.3162971
  70.4035902  51.8805790  20.3820014  23.9119577  49.3905258   6.6521424
  23.3989263  49.1392756   7.4201930  23.2836485  49.8267269   6.0766512
  65.1264572  62.1283817  18.3603454  64.8758364  61.2940836  17.9636538
  65.4500198  61.8925762  19.2297900  80.0523472  44.5677900  65.9815598
  79.5552111  44.3922567  65.1826382  80.0872135  43.7240314  66.4322090
  54.4815397  48.2155704  53.3388996  53.5449839  48.0441952  53.2403135
  54.5296574  48.9162970  53.9892054  53.1832266  20.1314664   6.7502606
  53.9247322  20.4625082   7.2570252  52.9599333  20.8481860   6.1563897
  59.6214199  26.3210750  46.2047768  59.3554258  26.5414429  45.3120756
  60.2451372  27.0063090  46.4448977  18.0513942  63.1992912  66.6158390
  18.0359066  63.4259462  67.5456858  18.3787668  63.9875507  66.1825895
  44.9035311  38.2374287   7.3249537  44.0055990  38.5652757   7.2752762
  45.4478073  39.0242434   7.2946244  65.4036617  31.6766810   0.8087661
  64.7374296  31.4648247   1.4625886  65.4057503  32.6330996   0.7701518
   0.1906457  65.3036499  65.6174517  -0.4659019  64.7486496  65.1965570
   0.6193509  64.7287798  66.2514544   6.3986683  21.7762852  60.5546904
   5.5236119  21.6115069  60.9059095   6.4905286  22.7287889  60.5776787
  68.3182287   7.4770796  20.5344796  67.8129196   8.2853395  20.4472423
  68.0340004   7.1058887  21.3697410  39.0062141  69.3947792  62.8680468
  39.1402793  69.3904734  63.8157988  38.1568766  68.9710283  62.7443647
  26.3159657   5.3854471  32.8025126  27.2715855   5.3903669  32.8572845
  26.1299014   5.2240610  31.8775439  58.6877871  35.9942174   1.3243513
  59.2630959  36.5870595   0.8408359  58.3912897  35.3615904   0.6700530
   7.1630132  72.7151632  59.8649073   7.5793797  72.8324890  59.0110302
   7.6205212  73.3278656  60.4406786  34.2227888  47.2149229   3.7566212
  34.6086884  46.3573360   3.9351037  34.5463872  47.7747536   4.4623864
  48.5413980  22.1052027  12.2556758  48.8240528  21.6250443  11.4773524
  47.7112675  21.6965532  12.5008643  43.9292955  12.6074100   2.4831438
  43.9093781  11.6505516   2.4671307  44.2411566  12.8550828   1.6127230
  65.4186869  75.5481148   6.7757791  65.1935244  76.1852694   7.4536932
  64.6389484  74.9988413   6.6948628  76.4518929  70.0172281  49.7150803
  75.6444120  70.4738808  49.9510384  76.7986822  70.5120087  48.9726782
   3.4101671  59.0096569  63.4189272   4.2091054  58.7635612  63.8851547
   3.7197033  59.4821882  62.6461887  67.0162058  36.0659647  55.6463385
  67.2553587  35.2994967  55.1252174  66.7765951  36.7298961  54.9997950
  30.7606864  33.9674044  14.8868847  31.4188576  33.2876611  15.0317812
  30.1469612  33.8654995  15.6143367  20.2239084  48.1026125  26.0583162
  20.9727478  47.7542400  26.5421653  19.7642612  47.3267937  25.7372808
  33.1283116  56.6772509  66.7525673  33.8595057  57.2909403  66.6820574
  33.4733415  55.8531141  66.4090872  21.5562415  60.2125025  65.3083181
  21.2046146  61.0921240  65.4456377  22.2081637  60.1043653  66.0008001
  79.5200062  30.6620097  47.5283003  78.7687922  31.2348270  47.6825285
  80.2140141  31.0234976  48.0795860  37.3278666  70.5770922  60.2130795
  37.5036502  70.5162096  61.1520290  36.9791079  71.4601612  60.0914621
  62.2166061   1.4194939  40.2263355  62.3349810   2.1896064  40.7823467
  62.2542906   1.7610262  39.3329334  26.1255288  40.7864618  64.6019220
  26.0194063  40.3028870  63.7827015  27.0654488  40.7528734  64.7798443
  73.8659000  71.4616966  41.5339375  74.6247339  71.9861984  41.2783909
  74.2404795  70.6547308  41.8871069  33.7289310   1.8880056   2.3277409
  33.5411763   1.3375023   1.5675265  32.9081631   2.3504734   2.4971330
  15.4234612   0.5875581  39.6366215  16.1009920   0.0357689  39.2458344
  14.6643412   0.4762848  39.0642691  60.7397270  13.1107819  49.7342348
  60.9056044  13.4074187  50.6290627  60.9917068  12.1873486  49.7374392
  21.2285447   8.0727750  33.8264203  21.9867277   7.5095636  33.6709094
  21.4387250   8.8883603  33.3715820  11.9294846  40.1012087  35.5623007
  11.5938723  39.3605900  36.0673571  12.8545070  40.1553059  35.8023810
  27.3606944  73.6350632  64.8487616  27.9395056  74.3974304  64.8518372
  27.0406628  73.5736895  65.7487869  70.6091356  74.1837549  66.2268305
  69.7301340  74.5625257  66.2157917  71.1530209  74.8274231  65.7728386
   2.9685634  71.1045408  65.4129362   2.8470400  71.7030144  66.1500168
   3.5968247  71.5495348  64.8441648  46.1394501   9.5387822  55.7172203
  45.3798676   9.8623961  55.2329159  45.8791113   8.6677784  56.0169029
  78.7498188  77.6816463  39.0935397  78.2101774  77.2957611  38.4035301
  78.9630747  76.9475222  39.6695709   3.2143232  24.0097737  28.6501956
   3.8723198  24.4940042  29.1489887   3.7209252  23.4948754  28.0221295
  67.3863602  50.6303787   2.7625367  68.0346775  50.9341145   3.3978757
  66.6030121  51.1458445   2.9546148  69.0961218  67.2156525  43.3688879
  68.3265400  67.7843618  43.3921909  68.8498783  66.4575911  43.8989210
  53.8278818   2.5685531  59.9820471  53.2747936   3.0893183  59.3997002
  54.3344688   3.2154536  60.4730892  33.6588883  67.5502968  63.3937407
  33.0433774  68.1028223  63.8754988  33.5499573  66.6799259  63.7769079
  64.8948669  22.3663568  49.5467710  64.4931412  21.5005136  49.6186399
  65.5144310  22.2835135  48.8218498  33.4582758  15.0567472  63.7106514
  33.4617329  15.8634758  63.1954765  34.0074849  14.4517863  63.2120275
  57.7791882  54.1038179  33.1658626  57.3700523  54.8857260  32.7951097
  57.1504164  53.4019327  32.9978466  15.7361925  67.4878216  52.5062227
  16.6885221  67.4462652  52.4191952  15.4045343  67.0927048  51.6999245
  77.6561546  43.4428596  19.7722578  77.8452921  42.5069904  19.8401344
  78.5122061  43.8657427  19.8399007   7.2346038  53.2974052  32.7670503
   6.8349451  53.3698797  33.6337972   7.2904903  52.3553181  32.6070881
   2.6402795  76.8759394  19.7396898   2.9526234  77.7662516  19.5783949
   2.5031075  76.5083790  18.8665831  20.7291460  72.3422050  31.5647984
  21.3775992  72.4814320  32.2549820  20.2965689  73.1905699  31.4679098
   3.7038288  55.6665468  42.4519157   3.3215791  55.6240034  41.5753841
   3.2180047  56.3644028  42.8914642  73.7698984  58.7918043  43.3667803
  73.4274435  59.0672493  42.5164366  74.3383551  59.5115995  43.6406136
   7.2742969  51.2686348  15.0287020   6.8888146  50.4525042  15.3473973
   7.4221337  51.7882729  15.8188605  13.8483894  38.2049417  23.5453534
  14.1654599  37.3019266  23.5291362  14.2833650  38.5979676  24.3020296
  19.7849572  15.0729978  41.1864948  18.9625692  14.8664618  41.6306257
  20.0812101  14.2357278  40.8295012   7.0943689  67.4206591  10.6450844
   7.7290142  68.1125832  10.8313608   6.3778555  67.5812101  11.2591398
  80.6602383  44.7428989  26.2603927  80.9688473  43.8496780  26.1082625
  81.1549473  45.0404501  27.0239115  15.2002847   9.4875550  27.6710868
  14.9324310   8.8932419  26.9701743  14.4633198  10.0905669  27.7685046
  78.8386774  57.1280003  53.6361790  78.6027002  58.0139589  53.9111900
  79.3910122  57.2557545  52.8649187  64.0775728  25.2637362  33.5901999
  63.1545925  25.4929829  33.4816575  64.2590427  24.6551967  32.8739715
  56.8542624  66.3398933  31.0168719  57.8034163  66.3412952  31.1407256
  56.5969229  65.4273462  31.1482477  14.7409809  36.8290448  31.7594647
  14.3833208  35.9438729  31.8286157  14.6395063  37.0568538  30.8353233
  18.0886269  72.4626589  46.6141558  17.4551117  73.0283833  47.0555735
  17.6404595  72.1765900  45.8182049  11.6843510  48.9065838  42.2861481
  11.7663181  48.3351898  41.5225935  12.4144197  48.6560631  42.8522491
  55.6318617  27.5898051  65.2088308  55.4953814  28.2089710  64.4917297
  56.5828419  27.4991202  65.2692461  18.1935608  38.1548452  47.9686546
  18.5005617  37.5925279  48.6798382  17.3322272  38.4568930  48.2569265
  58.2782316   0.1644704  63.0054426  57.5475788   0.7577848  63.1796646
  58.9106512   0.6981503  62.5243378  26.7791128  20.9540772  32.9525065
  26.2480736  20.9693408  32.1562672  27.4419498  20.2840090  32.7855206
  11.9820678  43.2925320  14.1443610  12.2399402  44.0460157  14.6753931
  11.3748097  42.8042793  14.7003102   7.4751973   0.0641625  35.5937791
   7.3070741   0.9819371  35.8074546   6.7648768  -0.4150826  36.0203958
  77.8670597  65.1205158  28.4671235  77.0934248  65.2388716  29.0182209
  77.5176477  65.0250483  27.5811052  36.6300035  48.7264633  12.0230031
  36.1821079  48.5008860  11.2076902  37.5344968  48.4451914  11.8851316
  73.6915827  36.9035935  57.7538300  73.5864878  36.0690284  57.2970057
  74.6191263  36.9331002  57.9883909  23.0159879   0.7383326  31.3090420
  23.0889654   1.2254108  32.1298099  23.6407971   0.0190381  31.4010215
  72.8172588  69.0163803  43.3297968  72.9569769  68.0910301  43.1287050
  71.9462490  69.2081499  42.9822350  28.4167814  16.6510665  31.7140079
  28.3508253  17.2372437  32.4678516  28.0444050  15.8241689  32.0202899
   9.0530789  10.4978478   6.3045233   8.1610179  10.8205342   6.4323252
   9.4535869  10.5508888   7.1722859  80.1570034  44.8081350  39.1528916
  79.7908258  44.8707342  38.2707191  80.9323692  45.3689861  39.1307259
  82.5987244  46.7956161  31.9357014  82.0348167  46.0480022  32.1339750
  82.0227623  47.5564909  32.0102882  16.1614859   9.3829733   3.9299163
  16.8575823   8.7301522   4.0041196  15.8898211   9.5471287   4.8329574
  75.8484316  71.2832212  32.2084498  76.7346096  71.6310883  32.3079634
  75.7829142  71.0564375  31.2808132  48.1893873  77.7272272  40.4660892
  47.5091457  77.7868605  41.1368704  48.0327463  76.8843317  40.0403881
  75.4747248  64.0052223  25.4598522  74.9988842  63.4950590  24.8044586
  76.1062860  63.3889771  25.8308077  35.8699346  69.2309237  20.8780742
  35.1767325  69.8636675  20.6900859  35.9167004  68.6863661  20.0922585
  27.1210146   0.5791008  18.3132029  26.8854713  -0.3459878  18.2427609
  27.1836615   0.7392745  19.2548251  11.8641329  56.5631485  39.2855763
  11.1642718  56.3006496  38.6876488  11.7574406  57.5098562  39.3782640
  22.5221992  19.0341079  52.0903492  21.9324970  18.4324133  52.5447130
  23.3741307  18.8916814  52.5028515   0.2600228  77.6393755  63.0938148
   1.1234461  77.3550873  62.7939606   0.2807652  77.5088653  64.0418482
  18.3521986  56.4212513  18.1651533  19.2120850  56.0147142  18.0576599
  17.7483439  55.8250475  17.7222896  59.4998932  23.4006190  44.0922928
  59.3237734  22.4920535  44.3366718  60.1669407  23.6909699  44.7143698
  71.2693548  31.6272616  13.3384216  71.2255526  31.5950656  12.3827672
  70.4219198  31.2897468  13.6285365  82.4031162  12.2746170  63.6600113
  82.5779629  12.1022773  64.5851946  81.5965080  12.7899909  63.6606503
   5.7827109  43.2844257  47.6950884   6.2367797  42.8978157  48.4438133
   6.1936587  42.8801775  46.9309330  27.7806425  69.6532822  64.9169827
  27.9933786  69.0002060  64.2502975  27.0837283  69.2494059  65.4341173
  78.9260721  28.0971742  16.0433233  79.3390465  27.2343206  16.0774958
  78.3891249  28.1372285  16.8347228  75.4208040  37.7116299  30.4828334
  75.0383997  38.0118322  29.6582866  75.6821918  38.5153222  30.9322643
  66.3210106  20.3466105  21.9798374  66.7286539  19.8242915  21.2890124
  66.8104076  20.1211381  22.7709651  33.3555770  36.8586540  23.4966040
  32.5482345  37.3557425  23.6282516  33.1195474  36.1822128  22.8618217
  57.6042509  52.5157309  20.6226659  57.1911049  52.1602249  21.4095306
  57.6820517  51.7655659  20.0332332  12.1888590  51.7076969  23.8602734
  12.7245593  51.1314774  23.3150864  11.9414663  52.4262333  23.2782626
  38.0492687  25.7532096  54.7748327  37.7780390  26.6368341  54.5260859
  38.8477683  25.5969214  54.2706490  59.4025898  40.4873753   8.8529927
  60.1268101  40.8267784   9.3788606  58.6164761  40.8284855   9.2794979
   9.2467749  11.1209047  24.9526954   9.1055632  10.7104528  25.8058190
   8.3748484  11.4012516  24.6745205  33.7447619  37.0416427  28.8916516
  34.2368793  36.9754958  29.7099900  34.0504766  37.8566718  28.4935331
   8.3635503  34.7083569   4.2507330   8.1334811  35.4614925   4.7948697
   8.3952081  33.9721918   4.8617101  12.1574557  11.8110704  33.8035321
  12.4940109  11.4067340  34.6032023  12.6708186  12.6130915  33.7063050
  56.8391562  46.7310429  39.9516225  56.8152809  46.6120052  39.0021539
  56.1505651  47.3715258  40.1301050  18.9097774  11.9920337  26.6839385
  19.4145060  12.1096587  25.8791733  19.5659947  11.7899013  27.3508358
  31.3717532  10.2861428  39.8051620  31.6562080  11.1701286  40.0372934
  31.6156769   9.7501427  40.5597734  79.8546886  19.5647657  44.1349411
  79.7657204  18.7520933  44.6328163  80.5929470  20.0165153  44.5437622
  66.0115290  43.6863279  48.3719110  66.3196659  43.0555534  49.0226078
  65.7891750  43.1535435  47.6084089  61.2633944  42.1672630   2.4568558
  61.2249327  41.3729811   2.9896531  60.7715845  41.9487286   1.6652748
   3.3045632  69.9479294  25.0574708   2.9327688  70.6296301  25.6171894
   3.9781505  69.5351934  25.5979896   1.7300019  59.6376514  15.3539038
   2.2712639  58.8922262  15.6139207   2.2329894  60.0696087  14.6635079
  20.1360011   6.6326910   1.3716111  20.4406595   5.7367349   1.2278171
  19.6087170   6.8333811   0.5983534  32.6118398  55.4903793  44.5115280
  33.0663967  56.0906982  45.1024818  32.3616076  54.7516823  45.0664520
  64.5669603  75.0929165  28.9885044  64.7468901  75.8215427  28.3943987
  64.7758389  74.3105364  28.4781241  44.4075918   7.0865828  45.3174734
  44.5004988   6.9745004  44.3714094  43.6272907   7.6316833  45.4185963
  56.0774660  37.5406933   2.4392255  56.3149643  37.7684379   1.5403610
  56.2285948  36.5971541   2.4951495  43.5761738  55.5167866  33.6120939
  43.7360382  55.2701950  32.7011228  43.6693096  56.4693928  33.6222434
  38.5648227  69.1133118  48.5326290  38.6621594  68.3654022  49.1220236
  38.3428764  68.7242985  47.6866722  62.7547598  66.6889668  39.6949792
  63.3478165  65.9464693  39.5800281  63.3253908  67.4571276  39.6716785
  80.8402443  67.0598984   7.3801762  81.3500118  67.3085165   8.1512547
  80.0602055  66.6341209   7.7358216  21.8067527  31.3793278  38.2405877
  21.3994765  31.7747784  39.0112877  21.0706711  31.0671902  37.7142954
  59.0707111   8.9182740   0.3069996  58.6940956   8.8494843   1.1843022
  59.0482473   8.0241853  -0.0340754  73.1122494  50.6044197  20.6945252
  72.7759981  50.0183058  20.0165606  72.9169464  50.1559258  21.5172887
  38.9540815   4.6409860  31.1651826  38.9549732   4.7660485  30.2161884
  38.0956268   4.2630780  31.3561559  10.1093435  72.9283762  41.2313366
  10.2782881  73.8240147  41.5237713  10.6987762  72.8041029  40.4874563
   4.0283445  68.7232780  10.0766265   4.7391441  69.2793798   9.7576451
   4.2381826  68.5713673  10.9981048   5.4068863  46.5711975  19.4415581
   5.5007553  47.3956585  19.9187231   5.3040487  45.9091663  20.1252031
  76.0474110  29.2237878   7.8716516  76.4050150  29.6123457   8.6700076
  75.1061010  29.3887997   7.9258138  78.0197859  35.6625080   1.4303097
  78.0581236  34.7371840   1.1883678  77.2154951  35.7428837   1.9430429
   2.2577608  76.8111944  40.8488512   1.4901082  77.3735428  40.7454014
   3.0033749  77.3987389  40.7260418  14.6011424  58.8745117  29.3341804
  15.4396319  58.8449049  29.7949314  14.7224975  58.2992792  28.5787892
  11.7452991  39.1295266  52.8532553  11.9171667  39.3954253  51.9499350
  12.1190143  39.8322439  53.3850050  17.6860273  42.3700523  14.4364667
  17.0637310  41.6967821  14.7115862  17.1391642  43.1185818  14.1979849
  18.9613283  67.1294260  35.8067489  18.0560946  67.3190355  36.0533881
  18.9397681  66.2253094  35.4931498  76.5196037  20.3320527  64.9368811
  76.6101742  21.2849045  64.9266052  76.1989164  20.1125002  64.0621281
   7.8681594  52.9432392  24.9703169   7.9670841  53.6037970  25.6559610
   7.9417115  52.1072674  25.4307175  65.6461906  51.9911385  33.3391213
  66.2230206  52.6881552  33.6516356  65.1488018  52.3931599  32.6269293
  49.7405100  60.5865860  10.4426670  48.8899231  60.2302837  10.6991458
  49.6792603  61.5205526  10.6431317  58.0804586  35.1774549  48.3309984
  57.6935339  35.9753585  48.6913681  58.5403299  34.7793245  49.0700817
  72.8625870   4.2182070  20.9998202  73.2536268   5.0698161  20.8046699
  73.0543423   3.6842793  20.2288580  40.5450773  30.8884192  10.9800887
  39.6279001  31.1264181  11.1156392  40.8353853  30.5593848  11.8307877
  60.6020498  45.1879883   0.2883953  60.0657845  44.5670319   0.7814071
  60.3775930  46.0428381   0.6559259   3.8205606  61.9431877  10.3693688
   3.2590544  62.3898935   9.7358102   3.2950124  61.2042713  10.6760204
  81.7839909  50.6121683  40.9308195  82.7101326  50.7167149  41.1488962
  81.3292503  50.7003689  41.7684746  67.4779034  74.7746944  29.2939281
  67.0935535  74.2219639  28.6134911  66.7262411  75.1809025  29.7254729
  24.3577719  64.8234844  31.0804749  24.3665051  63.8690281  31.0086083
  25.2045822  65.0979280  30.7285833  41.7075109   5.4834324   8.4980649
  41.2092590   4.6920910   8.2937223  41.2398243   5.8774632   9.2344368
  79.9878407   8.0510998  44.8131037  80.7533741   8.5538292  45.0913954
  79.9122095   7.3512036  45.4616880  40.4723930  50.3638983  10.7067275
  41.2378073  49.8007441  10.8217824  40.8297968  51.1904860  10.3823066
  70.4326677  41.7088938   4.6896580  69.7231865  42.3373175   4.8236352
  70.5956459  41.7291164   3.7466511  11.2445128  -0.0915063  16.9657719
  12.0531142  -0.1828456  16.4617360  11.3228095   0.7622141  17.3915219
  62.9381466  60.7985401   1.8625247  63.4679413  60.8793879   1.0694201
  62.0337582  60.8225060   1.5499029  10.0040770  38.0121017   7.2481108
  10.8152199  37.7815771   7.7010322   9.6979827  38.8027000   7.6925093
  19.7169864  66.5866423  10.3180790  20.3023243  66.0396719  10.8419418
  19.0327179  66.8590736  10.9294617  81.5412331  43.2739925   3.3757490
  81.2660885  43.7908888   4.1329476  82.0848656  43.8717031   2.8624862
   2.8574371  52.9264975  26.0898328   2.2457115  52.4144983  25.5607939
   2.8306770  52.5141144  26.9532299  59.7997046   5.2409106  66.7607355
  59.0522528   5.2528304  67.3585701  60.5300283   4.9313962  67.2965145
  64.2392778  69.8446226  17.9592991  64.2442560  70.1341963  17.0469654
  65.0327635  70.2252865  18.3357394  68.8277292  24.5496774  19.9870062
  68.5758543  24.1394663  19.1596496  68.7075043  23.8618517  20.6417370
   1.3955377  16.9103754  36.6660523   2.2233896  17.1954215  36.2792158
   1.1364276  16.1507499  36.1444545  74.5397568  71.5787554  16.3527048
  74.2060423  72.4315834  16.0742390  74.1053057  70.9512901  15.7749772
   2.5612721  48.8555384  20.1543617   3.4794536  48.8698578  19.8842335
   2.3436040  47.9253197  20.2139020  63.8834238  46.8215418  19.8126590
  63.7190580  45.9148216  20.0716424  64.3200016  46.7527342  18.9636004
  35.5136991   4.5117956  61.4572573  34.5849013   4.5874372  61.2385225
  35.5378008   4.5425421  62.4136591  67.2044992  20.5290723  24.8506498
  67.1579599  21.4848995  24.8291707  66.3522148  20.2553391  25.1896381
  61.5676785  26.2406373  13.0536187  60.6134033  26.2484694  13.1279647
  61.7967272  27.1389437  12.8152645  11.8118596  20.4066324  21.4847064
  11.0111117  20.6691837  21.0307240  11.5425539  19.6770740  22.0427871
  53.4852600  12.9154325  44.1042280  53.0130243  12.1972716  43.6829567
  53.8027668  12.5432622  44.9269724  24.7123003  34.6174908  32.7367783
  25.6144786  34.4231915  32.9908538  24.2084646  33.8657165  33.0485773
  24.1400003  71.1227560  42.4126434  24.4891644  71.9712257  42.1398449
  23.7428784  70.7612228  41.6202927  59.3856573  63.8098288  13.2741797
  59.1304636  64.7111082  13.4711576  60.1943016  63.6763525  13.7686563
  81.9778538  41.8623209  40.5051470  82.6426411  42.5426531  40.6120586
  81.1451626  42.3223495  40.6111574  56.1736441   6.0067189  37.4310517
  56.2557697   5.7939208  38.3606791  56.8014669   6.7156088  37.2912455
  31.8840027  13.8665581  25.7219100  31.3299608  14.5386994  25.3250551
  32.5205708  13.6482728  25.0412011  80.1204586   9.7812176  13.5241520
  79.5525408   9.0107197  13.5297561  80.9962749   9.4344556  13.6942577
  61.2985516  32.4415421  12.8317058  61.1581039  31.6967964  12.2470176
  61.1139393  33.2091284  12.2904468  21.0255051  29.3014097  48.2283640
  21.2602854  30.1942587  48.4812069  20.6286931  28.9263391  49.0145540
   0.5392863  54.3548059   9.0208113  -0.2323852  54.0668726   9.5085102
   0.8779592  53.5566044   8.6153460  44.5989943  65.7034683  15.3195322
  44.2252445  64.8494005  15.5365944  43.8979483  66.1606359  14.8550320
  34.4405699  12.2908926  31.6450524  35.1226115  11.6487646  31.8418264
  34.5201802  12.4439681  30.7035327  12.2310698  33.5811663  49.6010542
  11.3173127  33.3299804  49.4662046  12.2295594  34.5359397  49.5329475
   6.9171935  61.6860628  10.8541059   7.4152642  62.1663237  10.1926637
   6.0192150  62.0020294  10.7539475  80.7690907  43.5783768  44.0536213
  81.5909481  43.1953192  44.3602943  80.5440521  43.0701590  43.2743216
  73.0413914  57.7513456  37.8471327  73.7899208  57.7601862  38.4436679
  73.4127140  57.5030470  37.0005536  23.7787390  40.6046343  22.2470951
  24.2526674  40.0613451  21.6174412  23.0369473  40.9528589  21.7524099
   5.2914155  17.0480454  31.2768817   5.2062780  17.8058910  31.8553734
   5.5363095  16.3287139  31.8589664  62.6038694  52.6126909  16.8738008
  62.0125246  53.3649158  16.9003201  62.6314688  52.2977543  17.7772856
  75.7518625  56.2837458  25.5644989  75.3849697  55.4428005  25.2916670
  76.1218643  56.1138821  26.4308000  53.2033920   8.4507495  29.7353029
  52.5801516   8.8766164  30.3238964  52.8187656   7.5919563  29.5598960
   0.1278462  63.1561422  29.9680471   0.8220639  62.5963449  30.3157687
  -0.6181464  62.5678873  29.8510599  65.1670265   2.4996208  54.7821856
  64.7536325   1.6405097  54.6969604  64.4629097   3.0757883  55.0796366
  58.1364632   0.4857375  47.9618454  57.5913715   0.6532276  48.7306499
  57.6002169   0.7697472  47.2215652  75.9461308   8.7024540  63.3168411
  75.6041956   8.8067210  64.2047882  76.6861057   9.3080109  63.2724953
  18.0997527  67.1695948  26.5143132  17.3868227  67.6935005  26.8796706
  18.8956273  67.6326847  26.7757773  80.3674698  24.2705584  12.9374242
  79.8423576  23.8424134  12.2612703  81.2655354  23.9951253  12.7534473
  29.8250198  11.5574837  28.3635759  30.6939387  11.3601935  28.0138826
  29.2696977  11.6465962  27.5890374  37.6965500   0.0986866  34.1163778
  38.2497455   0.5477337  34.7555709  38.1395162   0.2346662  33.2788086
  56.8822145   3.1835938  36.7796326  56.3929987   3.9980397  36.8961477
  56.2123871   2.4998081  36.7792439  21.6789985  76.9043398  61.8597317
  21.1318183  76.7518806  61.0892868  22.3726010  76.2479067  61.7945957
   0.9847330  32.7434945   5.1053256   1.2021928  31.8753052   4.7659242
   0.2670669  32.5877905   5.7192826  59.7136831  33.6379218  65.7373333
  59.9961090  33.1463361  66.5085745  59.0946341  33.0563068  65.2960443
   7.7141547  43.7638092  64.0843630   7.3592937  44.5063305  64.5732021
   6.9753510  43.1620932  63.9930344  34.9194622  40.6522751   1.9811526
  34.2516160  39.9961734   2.1805036  35.2765131  40.8976078   2.8347093
  68.6324358  37.6061273   8.7321919  68.8102293  36.6915631   8.5126513
  68.6679411  37.6341867   9.6883219  48.8323069  20.1023984   3.7405676
  49.0380764  19.1924274   3.9546800  48.7982464  20.1216030   2.7841663
  67.2653770  26.7792964  12.5610948  67.4367046  26.3631773  13.4059167
  66.6938210  26.1635756  12.1023583   2.0699564  58.6843872  40.8193827
   2.9023412  58.8065195  41.2759447   1.7252859  57.8613281  41.1657953
  52.5484228  53.6993361  28.6355948  52.4580622  54.2097759  29.4402790
  52.0126629  54.1662407  27.9943490  74.6556711  17.6613641  48.1053114
  74.8410463  16.8966377  48.6503410  74.1457653  17.3154724  47.3727894
   5.3478914  40.8877230  19.6682858   4.5723504  40.9183598  19.1080809
   6.0557199  40.6184196  19.0828907  18.8831139  13.8635075  60.2916193
  19.2784536  14.6799183  60.5972576  17.9618955  14.0816987  60.1502752
  36.5622473   7.6906651  63.5841894  36.8335795   7.8403991  64.4898367
  35.7450247   7.1976942  63.6573887   1.7450279  38.0548501  14.3801260
   2.2142327  37.3104763  14.7569370   2.1395341  38.1741834  13.5162067
   0.9715972  23.4739518  64.1518974   0.1970831  23.8484645  64.5715427
   1.1388029  24.0464711  63.4032345  70.5385017  72.4060154  23.4009886
  70.0843287  73.2208014  23.1863117  69.8685980  71.8594503  23.8117480
  21.1763835  18.1033039  16.4592326  20.9628701  17.2450829  16.0930324
  21.3684106  17.9294693  17.3807192  63.3987522  50.3500557  26.3941288
  62.5308323  50.3579092  26.7977142  63.2748175  50.7860661  25.5510592
  18.4351790   9.8739016  53.4803200  18.4635603   9.1135931  54.0611458
  17.5081050   9.9765921  53.2653284  24.9883533  70.3862476   2.5115997
  25.3169107  69.4891644   2.4522886  24.5285177  70.5281019   1.6841567
   6.1721206  46.5159702  22.5681543   6.4697593  46.5216446  23.4778857
   6.5665329  47.2981024  22.1822286  48.3825254  19.2231250  65.5204153
  49.0880537  18.6369467  65.2468204  48.6468554  19.5271051  66.3887262
  76.5291119  19.2363775  12.0484126  76.6977835  20.0371385  12.5449646
  76.0503769  19.5312738  11.2737620  15.1224530  56.4961910   3.2019898
  15.0548756  55.8431244   3.8985324  15.8432591  57.0637846   3.4749469
   8.7497371  25.0150728  29.2575860   9.2034894  25.4589844  28.5411477
   8.8681459  24.0829349  29.0750170  80.2845955  24.0464616   8.9590323
  79.3922043  23.8179541   8.6989450  80.4862404  23.4457254   9.6764517
  61.6579866  29.0012002  15.3233242  61.6807222  28.1808448  15.8159995
  62.4802876  29.0092492  14.8334384  51.0865068  22.9027438  64.7268391
  51.8727684  22.3570371  64.7116756  51.1695910  23.4203148  65.5277443
  20.8423376  12.2173440  24.7705650  21.2830400  13.0618143  24.8648047
  21.0578489  11.9324946  23.8825083  34.1188049  52.2001696  14.9599528
  34.0927052  51.6852045  14.1535020  34.2390251  51.5521717  15.6541276
  47.9923439  10.7973158  57.5832033  47.9673624  10.1003599  58.2388401
  47.3680496  10.5184734  56.9133234  44.9081469  76.6672897  38.0596280
  44.4110298  76.7987871  37.2522759  44.2443371  76.6465330  38.7489462
   9.9357319  46.7675877  53.3959007  10.0582469  46.1453056  52.6789713
  10.8037448  46.8524742  53.7903357  71.1550379  53.8009548  39.6723747
  70.4585600  54.2967749  39.2419004  71.1443329  54.1100121  40.5782461
  38.0732131  62.4484205   1.5924083  38.6080861  63.2422352   1.5900853
  38.6976266  61.7384434   1.4431703  44.3611479  11.2845755  47.4649525
  43.8649511  10.4676545  47.4133778  45.2261639  11.0615122  47.1211147
  74.9474525  28.5567212  66.0305738  75.7979012  28.1705999  66.2400436
  75.1173878  29.4973612  65.9800720  22.9749393  33.0381632  65.9757805
  22.4622345  33.8124919  66.2076855  23.0667114  33.0878186  65.0242853
  25.0052571  63.7352753  21.8696165  25.9403801  63.8984013  21.7464638
  24.9608350  63.1625795  22.6353049  70.8876944  38.5341787  67.1324253
  70.4939413  37.6946616  66.8949318  70.3378248  39.1875100  66.6999483
  28.4932685  76.0009575  20.4508972  28.6169100  75.8052778  21.3796878
  28.2554555  76.9279337  20.4310155  52.4835348  68.2894945  18.1663167
  53.0312586  69.0676975  18.0632031  52.2592592  68.2760334  19.0967739
  22.9593372  76.1862087  30.7174635  22.6510239  76.3287544  29.8225570
  22.1664524  75.9859419  31.2149143  18.3006585  40.0681114  56.9575071
  19.1818249  40.0802851  57.3311806  18.0444574  39.1460681  56.9781685
  14.0039194  69.4212151  13.3208728  13.2247174  69.8637819  12.9844058
  14.3315566  70.0020742  14.0075219   7.7610135  50.3622103  33.0444789
   8.5086560  50.5558968  32.4790168   7.5834274  49.4332695  32.8969336
  25.8271003   9.8826373  30.3699160  25.7137513   9.1464198  30.9710526
  26.6419482  10.2985179  30.6515169  14.5151949  12.9693854  54.8633957
  15.1635611  12.3476422  55.1939821  14.9401224  13.3811939  54.1110086
  78.9429951  17.2711980   2.1070199  78.6221218  16.8802941   1.2943292
  78.9914465  16.5393138   2.7220249  20.0066733  60.8514357  36.9620514
  20.8794975  60.7658148  36.5785456  19.4191885  60.9136248  36.2089062
  79.3189573  53.7477922  50.6381893  80.2332592  53.9954376  50.5005074
  79.3023539  53.3729076  51.5187693  35.9149265  69.5371485  10.7371950
  35.7902074  69.2235804   9.8414528  36.1552954  70.4582644  10.6372225
  27.5390887  68.0440044   3.2202071  28.4337592  67.7098131   3.1560966
  27.6069188  68.9619827   2.9576188   2.8732458  45.2755594  11.4327872
   2.0813242  44.8105192  11.7026532   3.2688427  45.5707979  12.2528911
  41.5826702   2.1852650   1.5533869  42.1237850   2.8903762   1.9086996
  40.8088875   2.6289535   1.2060728  13.7486124  58.6927414   1.0558132
  14.6302140  58.3430767   1.1852100  13.3425570  58.6449051   1.9212969
  26.9706368   3.4137741   7.8565538  27.1509123   2.7166069   7.2259271
  26.5821218   2.9636392   8.6066651  45.6732798  61.8207359   0.9271591
  45.0124550  61.7045736   1.6098356  46.1826658  61.0105610   0.9465593
  64.6402979  54.9499464  50.5420589  64.1270256  54.3235826  50.0317192
  63.9877558  55.4579544  51.0240793  38.3969760  57.7615118  38.3501935
  37.9041624  57.0396280  37.9600072  39.2829871  57.4157953  38.4583306
  63.6542368  36.9318938  61.8116713  62.9366350  37.4787021  61.4918566
  63.8800573  37.3068619  62.6629305   6.5259993  12.5926363  60.7777882
   6.6377932  11.6491866  60.8945608   6.0613763  12.6775348  59.9452305
  66.9935560   2.4306408  26.1253738  66.6412067   2.1695690  25.2745366
  67.3599434   1.6251288  26.4902616   0.3014227  49.3808126  33.6375427
   0.7802597  49.4998264  34.4577765   0.0015051  50.2597237  33.4055948
  78.1899405  43.2270145  15.8322442  77.7855062  43.9046669  15.2905285
  77.6787424  43.2305288  16.6415012  31.1364675  64.3203974  17.3126149
  31.6028404  64.4955635  18.1299555  30.8291578  65.1795387  17.0233476
  40.1691628  11.4781952  27.1533799  40.4931974  11.6011357  28.0456352
  39.3333387  11.0246241  27.2624755  10.4060352  49.4309616  63.8206482
  10.0652254  48.6187983  64.1954422  10.5110681  49.2391300  62.8887653
  23.2096505  71.5547276  55.5575085  23.7155128  72.1081066  56.1525726
  22.3265481  71.5506411  55.9267569  15.0009990  64.7003984   3.6787561
  14.4069088  64.4254208   4.3770942  15.0999367  63.9233351   3.1286544
   5.0444299  45.1883173   4.7244534   5.0939524  45.8648014   4.0490648
   4.4913200  45.5702782   5.4059279   2.9038885  68.0005407  18.9357162
   3.2156274  67.8354263  18.0458927   1.9561629  67.8763962  18.8843763
  49.3419266  16.1522806  46.8373537  49.3628597  16.7779171  46.1132193
  48.6142397  15.5669940  46.6272402  71.9949150  33.6437583  51.5914917
  72.8889132  33.6901808  51.2526083  71.7256403  32.7388740  51.4336777
  38.7555099   8.6401391  14.2600441  39.4254827   8.8137251  14.9212825
  39.1546082   8.9187336  13.4358239  21.7978168  -0.0993084  18.3771801
  21.0742974  -0.0253837  17.7548540  21.7221379   0.6810878  18.9262581
  38.6432695  23.3372426   7.1956480  38.0548596  23.3853722   7.9491007
  39.0075421  22.4528265   7.2323412  69.5371199   5.8826059   4.3613458
  69.5014858   6.5928411   3.7206221  69.0267134   5.1765394   3.9648798
  14.4709730  71.9787216  27.2035122  15.1683378  71.4265871  26.8498778
  13.8276839  71.3599825  27.5493026  30.2799988  56.7657995  45.0959969
  29.6175051  57.0461845  44.4645500  30.6958270  56.0073566  44.6860170
  65.3160477  69.3379688  51.6035271  65.2121401  70.2886724  51.5635633
  65.5862665  69.0891933  50.7195997  51.2930822   5.6028748  19.8026240
  50.9768105   5.8627361  18.9373636  51.0410309   6.3260055  20.3768921
  35.9615779  19.4652927  15.1040423  36.0558343  19.1741467  16.0110056
  35.1867056  20.0271988  15.1121724  60.8575535  67.3021603  16.4893615
  60.2101135  68.0028105  16.5677130  61.5571070  67.6809072  15.9570026
  25.2091146  68.2388258   8.6029923  25.4727483  67.7930355   7.7980101
  25.9087825  68.0421019   9.2258853  51.3204765  48.5189533  12.1798038
  51.6405249  47.7725172  11.6732132  51.4449787  49.2717361  11.6018307
  67.1849871  54.2061567  64.7346640  67.8698254  54.8136091  65.0143671
  66.4046812  54.4888830  65.2115488  50.7441187  13.5529757  37.5776601
  50.9502029  13.9508128  38.4235263  49.7879505  13.5129499  37.5584054
  18.9364851   3.7315783  47.5479221  18.6294186   2.8353515  47.4111032
  18.8695598   4.1419372  46.6857386   1.2464026  44.8204565  51.0280132
   0.4504899  44.3211269  51.2108469   0.9629065  45.7346678  51.0367250
  78.4921980  16.0009658  28.7258410  78.6307478  15.2063584  28.2104421
  77.5694275  16.2163901  28.5904741  10.7404053  68.7706232  36.8419290
  10.1961732  68.0939722  37.2446537  10.1889896  69.1435862  36.1541271
  72.0725489  46.4886332  63.6315632  71.2897015  45.9594679  63.7844133
  71.8775082  46.9799280  62.8335524  64.9435854  30.9270000  44.2649317
  65.4839468  30.1733828  44.0276575  65.3299189  31.2522030  45.0780869
  77.2006893  60.8504200  33.9597058  76.8412066  60.0831556  34.4050193
  76.9950628  60.7092094  33.0355787  38.0080104  75.0638342   1.1232531
  37.7730036  75.5730629   1.8989390  37.1690011  74.8392630   0.7209329
  72.2968483  69.9476194  52.6726675  71.9407797  70.4391098  53.4128618
  72.6143265  69.1309214  53.0579472  58.7093449  22.1863341  57.4500704
  58.8314962  21.6879869  58.2581282  57.9705095  21.7604303  57.0153713
  48.8329172  62.0639277  44.7385883  48.1274128  61.7935228  45.3262758
  48.5700703  62.9318762  44.4323015   6.9039446  62.2190666  42.4602985
   6.4557528  62.7874231  41.8339396   7.8346026  62.3476744  42.2770882
  47.0106840  51.8971729  29.6692729  46.2504053  52.4604511  29.5245981
  46.9915724  51.7051697  30.6068230  58.9964819  71.4540577   0.9654321
  58.1392384  71.0429382   0.8543368  59.2831898  71.1785889   1.8361492
  11.1522830  30.4110861  20.8469129  11.8073893  30.9402156  21.3019848
  11.1682582  29.5681763  21.3002086  11.2687910  39.7275138  22.5303197
  10.8612812  39.9772906  23.3596420  12.1224976  39.3737841  22.7799034
  15.9953451  43.3254194  11.2499487  16.2576008  42.4367523  11.0096931
  16.1743891  43.8476467  10.4679930   7.5232130   3.7119356  40.1734543
   7.3627847   4.0331855  39.2861605   6.6719586   3.7710756  40.6071615
  47.2505665   8.7816399  42.4642134  47.7060699   8.1405669  43.0098963
  47.0605993   8.3126563  41.6516876  66.4778566  25.1099730  27.2847009
  65.9558296  25.4050064  28.0308080  67.3599243  25.4343343  27.4663138
  31.9129610   9.2364168   9.0023816  31.4329886   8.4119946   8.9237231
  31.3198805   9.8943955   8.6396819  39.5446110  12.7100575   8.2669264
  38.9366007  12.7631021   7.5295377  40.1523018  13.4366429   8.1290340
  42.6549816  53.4351826  27.3652101  42.3151684  52.5759029  27.1154070
  42.3393297  54.0256739  26.6811681  34.3529797  64.0072346  13.8016081
  34.1931057  64.7985125  13.2872558  33.6917853  64.0334940  14.4932461
  38.1140184  65.7731295  12.9239380  38.7711143  66.4053297  12.6327610
  37.6755428  66.2041283  13.6575663  44.1359568  69.1846514  34.1494298
  44.1891098  68.2328606  34.0628624  44.3360233  69.3529510  35.0702357
  67.7797937  49.7315645  26.3577104  68.4223557  50.0226784  27.0047069
  67.8352261  48.7761927  26.3781786  69.2655802  74.7870731   8.3307964
  68.5792017  75.4540253   8.3478308  69.7288799  74.9411535   7.5074822
  13.2464874  72.7720737  49.9382353  12.8784204  72.2396278  50.6434011
  14.1851461  72.5861931  49.9627066  58.2670116  52.6400185   3.2264110
  59.1564274  52.8930902   2.9791901  57.7266455  53.3897734   2.9772040
  27.6608729  43.9542723  35.3904462  26.8931794  44.5081425  35.2486563
  27.4542165  43.1375742  34.9359894  76.2472677  72.8819132  41.0378456
  76.5821028  73.7257385  41.3412857  76.9392729  72.2573948  41.2554121
  27.6108766  52.1783781  11.8664956  26.6653252  52.2876978  11.7654216
  27.7367663  51.2318420  11.9332588   9.5979297  42.4200869  52.4664831
   9.5043594  42.8608418  53.3110046  10.3845417  42.8058004  52.0808697
  79.1543627  22.1870232  28.0468607  78.2293415  22.2524238  28.2841253
  79.1510868  21.7826200  27.1792912  71.9674587  45.8726263  34.2577887
  72.3177910  46.0049534  35.1386905  72.5737286  45.2547646  33.8492370
  42.9084063  27.7468395   5.3745186  43.3538008  28.5940957   5.3708148
  43.2974768  27.2685170   4.6423560  26.2415767  68.6819172  40.7495880
  26.9543171  68.1960344  41.1644983  25.4559159  68.4027481  41.2197256
   5.0786406  57.1031952  32.8473520   4.1991848  57.3785734  33.1061149
   5.4526311  56.7196560  33.6406112  45.7635403  61.1549854  50.7163906
  45.5437088  60.4475784  50.1101875  45.0633335  61.1375856  51.3688040
  14.8695040  71.2186956  32.5203180  14.4830906  71.5171623  31.6970110
  15.0633764  70.2931070  32.3722410  38.3865404   2.7320600  19.6266162
  37.5412393   2.7479911  19.1777933  38.9552188   2.2236954  19.0483403
  47.5925875  64.7673225  21.8145204  47.3514652  64.5287514  20.9194374
  47.7955723  65.7015467  21.7669702  56.5103006   1.7575306  12.8939331
  56.2565565   1.4213087  12.0343983  57.0597982   1.0687271  13.2678819
   9.4105405  55.8136988  63.2526731   9.6300536  54.9060678  63.0423212
   9.6346080  55.9058666  64.1787052  24.8465228  44.3104839  34.3712330
  24.8840594  43.6427116  35.0559974  24.0860534  44.0688848  33.8425112
  59.0103960  25.9382606   2.4665332  58.7745380  25.0119972   2.5178748
  58.5338116  26.2648249   1.7033467  27.0387816  66.6765738  16.5296841
  26.4143133  66.0259199  16.8504977  26.7087364  67.5105429  16.8640375
   3.4714615  62.5404072  42.3294878   3.8244456  61.6626024  42.1842527
   4.1075850  62.9617596  42.9074478  81.2479305   7.0164758  63.7381887
  80.5570698   6.4200288  64.0266275  80.8239174   7.5782585  63.0894613
  42.2913074  71.2302065  41.5816069  41.3788795  71.2335634  41.2923002
  42.6147747  72.1044254  41.3640213  52.1877098  52.6967525   4.5705605
  52.6886940  52.0594692   5.0796002  52.5607443  53.5440493   4.8138091
   9.8593676  25.4559350  54.6284437   9.2236841  24.8886704  54.1921520
  10.7098496  25.0744700  54.4107342  66.2743330   6.3009739  51.9336748
  66.5192842   6.0020149  52.8093767  67.1009874   6.5682638  51.5318871
   0.1402137  18.0233252  32.1405053   1.0168966  17.9522061  32.5181293
  -0.0976908  18.9428997  32.2588897  69.9857521  69.4289780  36.4896774
  69.4334555  69.3762827  35.7096648  70.7692814  69.8946619  36.1973476
   5.2868855  53.2447958  16.1632931   5.9615475  53.8623333  15.8809674
   5.6227988  52.8810883  16.9825077   1.9545092  24.1247940  45.4326200
   2.6084334  24.5200825  44.8561144   2.1253271  24.5134449  46.2905264
   6.2268114  16.1187267  52.8209400   5.4923874  16.4957964  53.3053684
   5.8580023  15.8876550  51.9684029  54.8659611  12.9381979  10.0593293
  55.2627897  12.1669054   9.6545213  55.1835251  12.9249501  10.9622192
  62.4812698  36.2802172  65.9574318  61.9791746  36.1805177  66.7662525
  61.8184185  36.3308692  65.2687454  19.1446769  21.3217783  62.5341606
  18.7531137  20.5692029  62.0908308  19.4965637  21.8606949  61.8256617
  64.0257549  21.0052061  23.2099771  64.8770237  20.8027172  22.8219461
  63.3914661  20.5880237  22.6269937  30.7376885  67.5246525  10.0923824
  30.4165173  66.7001152  10.4573715  31.5570617  67.2905588   9.6564204
  61.6989279  18.4829760  16.4597714  61.3082266  17.6122630  16.3859868
  61.0896111  18.9728904  17.0119941  52.8980541  76.5107965  38.1205916
  53.2985544  76.7270374  38.9626551  53.5016251  75.8836508  37.7223158
  73.7935591  75.4907703  26.7729235  73.6618042  75.3274250  27.7068353
  73.8532495  76.4435101  26.7024970  37.6401162   6.6410255  10.7162106
  37.9831409   5.8080184  10.3926909  37.4959302   6.4938337  11.6509712
   7.2162801   9.0871400  26.3571548   6.3461912   9.4809872  26.4208746
   7.2896802   8.8151997  25.4423356  68.3924294  13.4896088   8.8953650
  68.5549927  13.9048278   9.7423583  69.2562723  13.2020557   8.5998595
   0.9198747   5.4224288  66.2113428   1.0257346   5.3949177  65.2604151
   0.1381863   4.8965609  66.3806295  45.6545877  15.0210953   8.9487654
  45.7316923  15.6053865   8.1945169  45.7299185  15.5989909   9.7081023
  69.4658232  49.7514677  54.9158430  69.0040207  49.4340897  54.1398048
  68.9243889  49.4640398  55.6510115  54.1395617  20.1531458   9.6139526
  53.3650780  19.8511922   9.1393685  53.8842106  20.1184654  10.5358112
  19.9711967  32.9907608  36.4821339  20.4941487  33.4446597  37.1429896
  19.0851855  32.9793310  36.8441916  74.7009563  65.3917837  22.4040246
  74.9163914  66.0118675  21.7073750  75.4718781  65.3916454  22.9713941
  58.6387110  27.0971251  24.2685699  57.7464294  27.0536470  23.9248013
  59.1319323  27.5666690  23.5958934  45.9696817  75.6704092  59.5782566
  45.3123283  75.2780199  59.0036726  45.6464529  75.5005217  60.4630709
  58.9172840  22.7535820  51.4713097  59.3519068  22.1691966  52.0924568
  58.1716156  22.2478366  51.1481571   4.3524805  24.4173217  60.2397203
   3.9144737  23.5707235  60.1522303   4.5308435  24.4990253  61.1765957
  35.1914072  59.8334551  62.7782106  34.2817760  59.9737597  63.0411148
  35.5619979  59.2936993  63.4764624  15.2477407  66.3535643  49.7336817
  15.5995858  66.9164038  49.0440083  15.2887070  65.4705811  49.3663979
   9.6265090  60.5707216  15.3838348   9.9163991  59.6596003  15.3385293
  10.0974226  61.0074663  14.6740985  45.6441212  53.6095762  53.3598852
  45.3611326  54.4589233  53.0211163  44.9589825  53.0010462  53.0832863
  42.0875406  24.2951775  20.7347584  41.5310001  23.5542917  20.9747148
  42.9536724  23.9104772  20.6004024  67.4329710  19.9072516   9.3706048
  67.0978355  20.1188374   8.4993154  68.3620262  19.7233820   9.2317235
   5.2483797  68.2265615  26.0542345   5.6185865  67.3705816  26.2698269
   6.0066581  68.8079023  25.9968781  63.8251019   2.0351911   1.8167149
  63.7729073   1.3955584   1.1065193  63.5912609   2.8679278   1.4067157
  81.4537144   0.0738991   2.5184360  81.4660645   0.9942052   2.7813354
  80.9513664  -0.3646424   3.2051402  62.7292061  46.4996004  14.4889164
  61.8440771  46.6484642  14.1563284  62.7396536  46.9307852  15.3434360
  71.8566370  32.8237200  28.4585166  72.8056574  32.7017713  28.4853888
  71.5326881  32.3517036  29.2256474  32.5112510  41.1478043  21.5686178
  32.9062796  40.9127283  20.7290196  32.3779845  42.0941067  21.5140247
  74.9456072  50.3144026  23.5385919  74.0394926  50.0062990  23.5548139
  75.3837776  49.7369480  22.9134655  60.6481075  14.4071138   8.3805120
  60.0536299  13.9641213   8.9859754  61.3802910  14.6904910   8.9280897
   7.6395071  75.8973408  14.6294129   7.8526521  75.6472635  13.7303782
   8.3384186  76.5004778  14.8823512  72.8180790  24.8519206   2.3655307
  72.9107618  25.1756907   3.2615298  73.7170458  24.7603345   2.0497644
  76.7902422  57.0814371  37.9145956  76.5514421  57.2500563  38.8260627
  76.1024714  56.4999485  37.5904465  28.6841035  47.4310112  22.5410151
  29.6232748  47.5987339  22.4632025  28.4405375  47.0389223  21.7024612
  11.8895018  69.4107103   9.3398160  12.8012347  69.3197060   9.6167535
  11.3801455  69.0844202  10.0816524  20.3259301   2.5226533  59.0402555
  21.1160159   2.0492047  59.3007183  20.1296163   3.0895978  59.7860909
  16.8138170  47.7692509  11.1304939  15.9992349  48.1816530  10.8430707
  17.2522330  47.5136566  10.3188932   7.4538749  20.1215100  48.4969473
   7.7160239  20.6725192  49.2344427   7.1270585  19.3183374  48.9023304
  35.6583953  16.7331004  45.9088802  34.7556043  16.8739378  46.1941290
  35.7386160  15.7826769  45.8283138  71.9767332  60.6925821  37.5800252
  71.8686247  61.0058022  36.6820073  72.7665186  60.1525116  37.5518680
  74.3408346  53.5073566  10.7260323  73.4343338  53.2633162  10.9129310
  74.3854809  54.4405317  10.9344029  11.2543833   4.3556482  34.9696684
  11.6670942   5.1336002  34.5945787  11.9524956   3.9309466  35.4681659
  21.6703033  67.7989054   6.3916528  21.7214537  67.0505333   6.9862574
  21.9438744  67.4499464   5.5433494  59.3360806   2.9180679  21.0746694
  58.4332752   3.2112187  21.1981273  59.2662430   2.1714951  20.4797053
  48.4842968  43.9499903  55.7700539  48.5532570  44.0721226  56.7169237
  48.9335346  43.1216240  55.6020594  81.7481422   2.5943696  60.0474977
  81.3435555   2.9356748  60.8450270  82.6637745   2.8667587  60.1079607
  76.1953068  46.1879158  60.7956362  75.8923197  46.5983057  61.6055822
  75.7328558  45.3504419  60.7639170   7.1300262  37.7263618   2.2644240
   6.5001214  37.7433777   2.9849529   6.6142499  37.4652982   1.5015005
  74.5227766  11.2663448  58.1763983  75.3804636  11.6633797  58.3279610
  74.7190523  10.4097927  57.7968884  37.0946312  67.0946693  56.6775990
  36.7572069  67.8951788  57.0795441  36.9060016  67.1971416  55.7447815
  54.4710302  52.4820042   1.0679813  54.0597963  53.2451010   1.4739466
  54.8788118  52.0137691   1.7964715  80.1416016  61.6229248  23.6222363
  80.1898289  62.3212576  22.9693651  81.0114002  61.2234831  23.6103845
  53.1871653  57.0310926  57.3977757  52.8979206  56.7551374  58.2674980
  53.3943701  57.9602194  57.4978876  63.3736992  57.7691460  10.7642901
  62.4403048  57.9717827  10.7014871  63.6115217  58.0106592  11.6594696
  14.3591535  56.5052509  27.5144577  13.7187791  57.0024538  27.0055914
  15.1737869  56.5855885  27.0183206  58.3519650  10.6704092  13.9712882
  58.7810946  11.4437425  13.6051762  58.3594751  10.8175433  14.9170828
  81.3676262  61.1618614  12.2143102  81.6487026  60.7038784  13.0064476
  80.4148674  61.0698986  12.2097838  18.6229968  61.6571283  24.1180301
  19.4260371  61.2186718  23.8367534  18.9203000  62.4909639  24.4821167
   5.7981646  44.3831635  28.4423447   6.4297259  45.0923443  28.3222413
   5.7514805  43.9565611  27.5867391   8.6204743  32.0828700  52.9875231
   8.5164338  32.2358370  53.9266777   7.7356350  32.1655488  52.6319170
  53.8845491  21.3142514  27.7522850  54.5691919  21.9547081  27.5591111
  53.2855511  21.3720965  27.0079160  14.2551827  53.1953812  27.2896028
  13.5162830  52.7125406  27.6599026  14.1688299  54.0782070  27.6493144
  72.4374342  36.0678005  48.2911682  72.1916342  36.9885325  48.3809853
  72.6057863  35.7763338  49.1872358  24.2522049  64.1619158  14.2254317
  24.5912075  64.8520660  13.6553407  24.8885965  63.4513569  14.1458106
  50.9159660  31.0360479  52.7788448  50.4195499  31.7910075  52.4628735
  50.2530861  30.3654623  52.9435968  29.3139243  30.5998564  24.9718475
  28.4123254  30.7705331  24.6994162  29.8368979  30.7680058  24.1879749
  20.7963276   9.7036988  37.1311235  20.2409673  10.1150799  36.4688754
  20.8445382   8.7851328  36.8662763  20.8653021  17.0208943  52.5949097
  20.1456618  16.6866815  53.1303120  20.4524755  17.2721720  51.7686749
  31.0102129  56.2845802  60.9574270  31.4903378  56.8947792  60.3976297
  31.5173936  56.2540054  61.7686367  65.5362797  30.8213902  49.0393448
  64.6783733  30.5157900  49.3340302  66.1053658  30.0565028  49.1248989
  32.2346306  42.4126720  30.2944708  31.8399215  42.0636082  31.0935903
  32.6823568  43.2101154  30.5770564  46.9306850  21.1864591  15.0518918
  46.3128710  20.9370923  15.7391751  46.3841105  21.3313317  14.2795563
  79.3835211   0.5566111   8.6394906  78.8555670   1.2935841   8.9466816
  79.0968180  -0.1831095   9.1750693  14.3384242  36.9828749  36.1429954
  13.4362125  37.2594571  36.3034606  14.2549157  36.1802649  35.6281424
   6.8916929  24.0709710  16.8103921   7.6103997  24.5068693  17.2683072
   6.1024898  24.3761539  17.2578907  46.6532707  50.4274988   3.8033259
  46.2386417  51.1303997   3.3030817  47.4125242  50.8413458   4.2138144
   6.3058120  27.0847511  62.9418993   5.7086098  27.7000499  62.5164747
   6.1341566  26.2475133  62.5108576  57.0512247  71.5427399  29.6492958
  57.0215368  71.0639191  30.4775953  57.5408936  70.9700298  29.0589905
  46.3600159  58.5893393  20.4947233  45.8941031  57.7754068  20.3032422
  47.2859383  58.3588791  20.4186940  18.7052774  46.7384624  54.0267277
  18.6156487  45.8056068  54.2216253  19.0325272  46.7649317  53.1275940
  75.7131767  11.3468289  40.5727816  75.3618383  12.2360861  40.5278873
  76.5350056  11.4380586  41.0549688  68.3935356  27.3852015  22.7177882
  67.7860260  27.5958562  23.4268618  69.0376282  28.0930495  22.7360106
  43.8184547  69.2950821  51.1322355  44.2859077  69.0796900  50.3251886
  44.3716574  69.9468708  51.5627766  32.9970455  63.1278181  15.9305513
  32.3175979  63.4702301  16.5113568  32.9002643  62.1769762  15.9831715
  27.0627880  59.5861769  13.4214675  26.8363905  59.2129803  14.2733467
  26.4150596  60.2771807  13.2829201  67.3944664  73.8719034   5.7762593
  66.9292164  74.6739626   6.0139191  67.0038271  73.1955194   6.3295543
  74.2419910  63.1762743   9.1340488  74.7094297  62.3508978   9.2624664
  74.8777056  63.8511133   9.3721485  44.6082592  59.5894861  48.6878061
  45.3456640  59.5489025  48.0788565  43.8455963  59.7441578  48.1304407
  29.3945050  33.1806350  26.6710234  29.0741873  33.3323860  25.7818651
  30.3367281  33.3402944  26.6166782  64.5258331   6.8352079  61.4617777
  63.6469507   6.6222638  61.7755508  64.6434641   6.2851328  60.6873035
   9.8620212  78.0043554   5.8954430   8.9151490  78.0229378   5.7564491
  10.1043797  77.0867252   5.7711661   3.2066855  24.3071747   5.8977932
   2.9776499  24.9791980   6.5397900   4.1530144  24.1985035   5.9920484
  15.6917226  55.2934265  58.7712622  14.8892605  54.8685122  58.4683847
  16.3974774  54.7504854  58.4200335  73.0023813  17.0420325  42.0069027
  73.3052015  17.7603102  42.5624275  72.8325415  16.3233995  42.6159620
  78.3081913  43.9022732  60.8222532  77.6489687  44.5664930  60.6210804
  78.1487942  43.2059431  60.1851177   0.7189336  37.3028493   2.5214490
  -0.1495776  37.2308469   2.9173398   0.5516686  37.3237777   1.5792087
  26.6943312   5.4608774  54.0981388  26.6434526   6.1514401  54.7590256
  25.9175801   5.5920517  53.5543728  71.4631081   3.5536975  10.8493972
  71.7054272   2.6611516  11.0961306  72.1428347   3.8244930  10.2322471
  78.5112047  49.1102552  33.6846662  78.6520290  49.8926210  34.2178655
  77.5717592  49.1113710  33.5011697   3.0214041  30.1863647  19.6033633
   3.2096809  29.6280670  20.3577423   2.2560185  29.7840881  19.1927660
  19.0856218  57.9988050  11.0176682  18.9258862  57.2226667  10.4807079
  18.6541903  58.7103128  10.5445349  77.3380423   4.6777406  29.7591662
  76.4030933   4.6263108  29.5605302  77.3795080   4.6884406  30.7154059
  73.3080435  19.6164513  13.1114960  73.7908268  20.4416537  13.1583488
  72.6515627  19.6833313  13.8048875  48.6707544  19.9201071  56.8833399
  48.0353832  19.2942953  56.5356350  49.2599535  19.3900323  57.4200821
  39.5486641  57.7637005  61.1662722  39.2355800  56.8840075  60.9556723
  40.0629187  58.0242252  60.4021358  12.9388416  25.6374788  19.9530923
  13.0810356  25.6391835  20.8996701  12.9282379  24.7106409  19.7141564
  20.9197903  24.9182248  16.9270790  20.9517360  25.4693151  17.7090704
  21.8314433  24.8528361  16.6427433  75.9861231  38.2280874  39.6199036
  75.6853008  39.0634418  39.9775672  76.6250610  37.9105330  40.2579832
  76.4016056  50.0022697  16.5210533  76.2371349  49.0669060  16.4015770
  77.2513533  50.0418949  16.9599104  19.3950284  19.0952075  55.1449537
  18.5774386  19.5859087  55.2285719  20.0639248  19.6825123  55.4969263
  55.2880526  40.0077534   0.5119286  54.9733877  40.0149298   1.4159009
  54.6880674  40.5892038   0.0448488  21.4362741  33.2821465   8.4517449
  20.8219218  32.5618529   8.3103985  22.0708919  33.1988239   7.7400225
  75.9134102  56.8666172  32.9779029  76.1873341  56.5219450  33.8278413
  75.0496101  56.4814997  32.8303790  74.2983484  66.8626642  35.5216169
  73.4489679  67.2627783  35.7078719  74.9371290  67.5337505  35.7621193
  76.7076635  52.4055099  23.1519032  76.0177088  51.7600584  23.3054781
  77.1840715  52.0706892  22.3921919  30.3785300  69.1776752  57.8664684
  30.5711365  68.7792778  58.7152386  29.5607519  69.6551514  58.0060530
  77.5042439  22.1077919   5.7172465  77.7044678  23.0423021   5.6640363
  78.1004190  21.6990042   5.0897890  12.5291741   8.7139440  28.8165832
  11.9613552   9.0121639  28.1060362  12.0971251   7.9298830  29.1554260
   2.3567346  63.3630133  62.3578358   1.4134631  63.4122133  62.5129175
   2.7008879  64.1826534  62.7127647  33.0335832  72.4439240  23.2945204
  33.1711936  71.9645834  24.1115451  32.2660327  72.9902458  23.4637165
  41.0802174  44.3714619  10.4692447  41.7548847  44.0790510  11.0820699
  41.2441349  43.8656282   9.6733212  56.4289904  34.2087054  43.9541101
  56.6926003  33.2967710  44.0770674  57.2539425  34.6900654  43.8910341
   7.3803079  30.1221967   9.8836529   6.7724907  30.8264208  10.1091766
   7.7884066  29.8824382  10.7156396  55.6021500  31.6490555  16.2421167
  55.4955482  32.4168134  16.8037355  55.7015514  32.0089722  15.3607476
  16.6202366  35.1170111  56.0473490  16.2330902  34.8320222  56.8750763
  17.1143651  34.3570733  55.7398367  72.3773861  26.2422180  18.9680719
  72.5742531  27.0528078  19.4375563  71.4770794  26.3547015  18.6630619
  62.9729414   7.3446578  64.4909811  62.0509005   7.1643078  64.3078470
  63.2286882   7.9837525  63.8258600  25.2500033  57.9108477  16.8281913
  24.3815756  57.5131178  16.8904829  25.8503056  57.2207117  17.1102941
  27.7634883  56.3325930  58.4544230  27.7084064  55.7591963  57.6899529
  27.5700521  57.2057819  58.1133127  68.5207891   5.9878093  44.4721746
  69.0914679   6.1930692  45.2127314  68.4347248   6.8156755  43.9994574
  13.1528687  58.0978680  33.3985877  13.9887047  57.6388788  33.3152914
  12.5042498  57.3997736  33.4891033  37.3018670  74.4657087  16.0159707
  37.9393268  73.8742781  16.4160728  37.6776242  74.6808386  15.1622963
  21.7536807  56.2351513   7.0825446  21.1289740  56.9602585   7.0965207
  22.0447230  56.1522198   7.9906464   9.8251051  73.2825279  53.4661579
   9.4634908  72.4076080  53.6075115   9.4907880  73.8009882  54.1980457
  26.5418315  17.4570274  11.4251161  27.4618363  17.6599514  11.5943611
  26.0590363  18.1758344  11.8331075  56.3442421  48.4200096  48.1222582
  55.8492136  48.4726381  47.3046923  56.7489433  47.5528145  48.1018114
   9.9018812  17.6714039  50.3060150  10.4826391  17.4341416  49.5830631
  10.4843211  18.0406392  50.9698343  30.1863170  32.0749378  53.5887527
  29.3161559  32.0485640  53.1908178  30.7702684  31.7356205  52.9104519
  46.5463114   2.9474926  64.7201157  46.1191750   3.6029178  64.1685677
  47.1030045   3.4564251  65.3094482  25.8226109  68.1372356  62.7358246
  25.8192611  67.4543619  63.4065723  25.3379583  68.8624907  63.1299734
  39.1731286   3.7739629  67.1929932  39.0143657   4.4830298  66.5698957
  39.0358949   2.9740101  66.6855717  72.7350330   1.2839018  11.5533495
  72.4022245   0.5221832  11.0787368  73.3470201   0.9191725  12.1926236
  36.4134836  62.4203968  62.1367359  36.8322992  62.1142483  61.3323116
  35.8146501  61.7139769  62.3788071  62.8743362  15.1082480  50.8690357
  62.5344515  14.5366395  51.5574932  62.4005890  15.9317446  50.9858704
  28.8866687  55.7441521  42.0470285  28.3578801  56.4695740  41.7148018
  28.3927488  55.4112434  42.7963257  66.0303926  28.9612985  66.9259453
  66.8755007  28.9348054  67.3746395  66.2471819  28.8510466  66.0001612
  68.4647560  22.6593280  60.7458353  68.9329052  22.9856610  61.5143204
  68.7754393  23.2076693  60.0253963  34.3824577  52.1179247  30.8450985
  34.0644217  51.2396860  31.0543489  34.3220305  52.1736288  29.8914337
  25.9159780  72.8337526  13.2184517  25.9537220  73.3776522  14.0052056
  25.8549190  71.9376802  13.5494530  44.8284054  39.2021036  17.7649736
  44.2051363  39.9130583  17.9143345  44.2824936  38.4473443  17.5446343
  40.5255699  41.8119526   8.4563148  41.2010431  42.3527050   8.0469775
  39.8192143  41.7818642   7.8110367  77.2098160  12.0133686  65.4958963
  77.1168947  12.0594203  66.4474630  77.3479414  11.0839283  65.3134346
  16.1090541  55.3033161  20.1310229  15.6843972  55.9701300  19.5913374
  16.4593410  55.7876682  20.8786440  49.1368580  46.6694927   0.1929324
  49.2812872  46.4314032   1.1087302  49.5736980  47.5153875   0.0936152
   9.0069222  16.6639924  18.4636843   9.1652751  15.7428622  18.6702669
   9.6070331  16.8543458  17.7426684  23.3877468  39.1403270   5.4143167
  23.0451131  38.7286806   6.2076533  23.5288548  40.0544691   5.6606078
  20.9374332  27.7951670  53.8131857  20.6026149  28.5768342  53.3737278
  20.8802557  27.1055555  53.1518269   1.8644409  21.4062476  45.6506634
   1.8999685  22.3350191  45.4218531   2.2861519  21.3545847  46.5084076
  49.8748064  16.3710213  55.7463694  50.0111866  16.5942979  54.8256207
  50.7192898  16.5441358  56.1624336  39.3179321  63.8969183  11.5890217
  38.6120296  64.4726896  11.8830061  39.9058914  64.4705153  11.0975730
  32.6110744  62.4226332   7.6977718  33.4279346  62.0627260   8.0433697
  32.3975277  63.1436586   8.2900155   7.8065622  71.1839771  18.5672987
   7.5923419  70.2740002  18.7729132   7.9677510  71.1847782  17.6237679
  24.9084854  56.3359451   9.4745582  25.2288008  56.8867397   8.7602365
  25.4639220  56.5636253  10.2201355  80.9654236  35.0091958  26.4680552
  80.0283241  34.9335790  26.2881422  81.0111618  35.3392935  27.3653698
  79.4732428  24.0294743  47.9183102  79.3180227  24.9598241  48.0813599
  80.3431416  23.9979601  47.5201654  55.3786421  25.8626461  61.1531830
  54.7108603  25.6389093  61.8014431  55.5185652  25.0519514  60.6638670
   5.8444762  13.4619296  63.4269667   6.2005889  13.0985713  62.6161718
   5.8463728  14.4087279  63.2862520  54.5983458  41.0885906  56.6012621
  54.7077751  41.9258738  57.0520544  53.8674116  41.2337494  56.0005140
  13.3239067  44.8015738  11.8827975  12.7960432  44.5258474  12.6321769
  14.2171621  44.5446730  12.1115494  68.9736128  64.6732569  11.2874997
  68.9839315  65.4116344  11.8965364  69.4822979  63.9924192  11.7278719
  22.5694418  20.8953738  33.4294772  22.5464201  21.7143965  32.9346013
  22.8848267  21.1485267  34.2970467  48.5718679  26.9689989  49.9212170
  49.0837049  26.9036365  50.7274294  48.6664867  26.1111569  49.5072269
  76.9119787  37.3654246  60.6789923  77.4854040  36.6026306  60.7535505
  76.5701294  37.4954534  61.5635633  55.5468082  70.0380611   5.0197548
  54.6439457  70.0302029   5.3375804  55.7539225  70.9660864   4.9097237
  53.3712864  70.8021975  38.9087677  53.5973263  70.1036310  38.2946515
  52.9724550  71.4804935  38.3637142  21.7034626  52.0286989  26.0212660
  21.0412598  52.3816538  25.4270077  21.5275240  52.4583769  26.8583179
  13.8691998  54.9552584   7.9072696  13.3125651  54.2047501   7.6996076
  13.2552075  55.6516457   8.1402719  49.3874216  75.2656555   5.6173861
  48.6811447  75.8311701   5.3049719  50.1353264  75.8533955   5.7243252
  70.3551865  29.5674324  66.8083048  70.2484083  30.5183506  66.7841339
  71.2904644  29.4352961  66.9633007   0.9788314  40.1563311  18.2560980
   0.2064555  40.0833559  18.8167596   1.2188484  39.2507052  18.0599654
  24.3522453   4.6850193  34.5642710  24.3143034   5.5021107  35.0614166
  25.0629401   4.8189643  33.9372110  40.6670904  71.5994835  33.8192153
  40.9120464  72.0291328  34.6387458  39.7290826  71.7686558  33.7311459
  79.8389864  44.7452307  12.8406775  79.3154192  45.2977562  12.2603118
  80.0119686  45.2961159  13.6041129  52.7203035  61.4946032  57.7034044
  52.7197695  62.0914745  58.4517193  51.9529915  61.7511272  57.1918774
  17.6770520  67.6400232  11.9266140  16.8951786  67.0926142  11.9990575
  17.3512614  68.4821081  11.6088319  54.8212062  30.1948930  67.6021073
  55.7213699  29.8740102  67.6565085  54.7202407  30.4717208  66.6913904
  59.4278479  10.3082478  55.6470919  58.5694599  10.3119659  55.2235413
  59.4999981   9.4359249  56.0344934  34.3353987  55.3780222  26.6620612
  34.5186329  55.2611017  27.5942564  34.2329073  56.3236618  26.5548730
  23.7473702  75.4669237  17.8335857  23.0494213  75.9685326  18.2548761
  23.9289474  75.9430599  17.0233035  71.1950207  17.9036140  30.9387803
  70.7565737  17.9420209  31.7887926  72.0815754  17.6039433  31.1399055
  39.2932463  31.7167354  64.0119505  38.8467908  31.1242223  63.4071064
  38.6695886  32.4289131  64.1536713  21.1232853  66.4658689  19.8786032
  21.8745542  66.0683250  20.3188133  21.2486863  66.2550116  18.9533758
  67.8945971  43.0390453  65.4433393  66.9622850  42.9831266  65.2338266
  67.9375076  42.8865671  66.3873434  43.8553333   3.0734900  39.3293333
  43.1522465   2.7313766  39.8814702  44.2420244   2.2967085  38.9252138
  45.7102394   1.7845969  60.4729176  45.8973312   2.6644260  60.8002234
  45.5039692   1.2761173  61.2572193  58.9498568  22.9546785  63.9672899
  59.7762585  23.1106114  64.4244337  59.1597557  23.0836773  63.0423403
  77.6979065  22.4715900  51.3641500  78.5310650  22.4884319  50.8931923
  77.1520185  21.8652630  50.8635426  73.9473629  26.1141944  45.2988672
  74.0567780  27.0449138  45.1038790  74.1777372  26.0347128  46.2245274
  15.8450806  68.4134054  47.8659105  16.3011742  68.5189056  47.0309973
  15.8412683  69.2904854  48.2492495  45.8619928  39.0034509   3.3102411
  45.2272511  39.6626234   3.0294824  45.7938099  38.3103204   2.6536185
  64.0779305  22.3740959   5.2671105  63.7922239  23.0122352   4.6133631
  63.2673645  21.9723988   5.5799288  57.7492762  61.9811726   3.6744210
  58.4343672  61.3366842   3.4968910  58.2239628  62.7663660   3.9471331
  69.4703388   6.8978620  60.0692463  69.2114210   7.2092456  60.9365606
  68.6977625   6.4393663  59.7388840  55.5140352  57.1685266   1.9668174
  55.8695984  57.1345901   1.0787559  54.9089146  56.4281845   2.0109878
  64.2206907  53.1436777  63.1747437  64.7664833  53.8860512  62.9154730
  64.5714331  52.8733587  64.0233564  52.9204941  12.3165524  54.1170979
  52.8173780  13.2589495  53.9848709  52.6083279  11.9246829  53.3014870
  48.9128447  58.4378767  28.4238386  49.0892076  58.0494738  29.2807341
  48.1916666  59.0473366  28.5809708  10.4204452  12.0297611  59.3957329
   9.9022233  12.2430599  58.6197329  10.8561790  12.8504062  59.6257544
   9.2977434  18.7908423  25.0278687  10.0672925  18.2444167  24.8683524
   8.9296067  18.4535408  25.8445311  62.3464155  22.7103519  61.8657255
  61.9892454  23.5348892  62.1955776  61.9750690  22.6226330  60.9878635
  64.9946547   1.8395220  41.2722206  64.9498796   1.9113892  40.3187704
  64.2822838   2.3954216  41.5880299  80.6469917  64.0021610  15.8678329
  80.6284523  64.4861698  16.6934383  81.2417793  63.2704782  16.0324490
  19.2179453  45.5558252  25.6071591  18.7064457  45.1593304  26.3124204
  18.8978243  45.1312637  24.8112297  53.3239651  10.4535854  25.5459714
  52.6371050  10.4962301  24.8806643  52.9043293  10.7741261  26.3443422
  16.4139640  15.0385880  59.6551895  15.9610105  15.7100940  60.1652336
  17.0229375  15.5280101  59.1021538  34.0924764  64.8161793  45.7649040
  33.3642912  65.4001427  45.5528545  34.8353839  65.4023075  45.9090376
  55.8873272  19.5577216  61.1216640  56.3824797  20.0761604  61.7559147
  56.1159039  18.6503744  61.3234138   2.2431277  30.9676194  12.6756823
   1.9118102  31.1261773  11.7917585   2.5838429  31.8159056  12.9595053
  49.3161917  49.4535160   0.7822401  49.7075176  49.4976807   1.6546768
  48.4438658  49.8321009   0.8915700  62.8629255  67.5968838   3.9116582
  63.3661795  67.9347229   3.1708235  62.8095675  68.3333731   4.5207286
  60.3296566  44.4914246  36.7375731  59.5086622  44.2792130  36.2935400
  60.0656843  44.7385883  37.6238346  69.1180325  39.0246987  60.8111525
  69.4028950  39.9299741  60.9358883  68.1620121  39.0706229  60.8231735
  51.0235214  71.8912554  26.6767693  50.8065844  72.2901249  27.5194287
  50.4840279  72.3632336  26.0424066  27.9529381  29.7901893  19.7179890
  28.8613081  30.0354934  19.5421410  27.8386474  28.9544582  19.2655289
  15.5958891  57.2683096  32.8183484  16.3648427  56.7040730  32.8994679
  15.7927477  57.8357601  32.0730424  76.9981384   3.0384254  65.7812881
  77.4417496   3.5946897  66.4216089  77.4705267   2.2067419  65.8184862
  15.7498586  55.3694773  65.5224419  15.1391745  55.7984924  64.9230719
  16.5222979  55.9347820  65.5225563  40.9706068  53.2892609  11.2223518
  40.2109098  52.8279448  11.5777028  40.7719660  54.2160797  11.3557088
  20.8740282  41.7913008   7.0463508  20.8136988  40.8389759   7.1216828
  20.0536656  42.0508337   6.6269708   8.9468664  35.8071804  62.9295349
   8.2067603  35.4572606  62.4335194   9.4755411  36.2678027  62.2779560
  56.2379789   8.8952738  12.2628486  56.3882017   9.8248684  12.4346590
  56.7325258   8.7165576  11.4630258  50.6430960  57.6520777  10.9053826
  51.2535620  57.8574371  10.1972926  50.4732847  58.4944439  11.3270617
  45.4289579   1.0173508  38.4598517  46.1522627   1.6371006  38.3651471
  45.2019072   0.7752174  37.5620484   4.2391446   3.8885981  64.7182369
   3.8567534   3.0215105  64.8530245   4.5453167   4.1528389  65.5857992
  70.4478025  61.7361498  55.6627655  69.7274637  62.0978689  56.1790037
  70.0704098  60.9715366  55.2278233  33.5940933  46.2548685  40.1079702
  34.2099023  45.8039665  40.6856394  33.1161714  45.5502367  39.6705723
  51.9449663  66.4934826  12.4122179  51.8433762  67.0422411  13.1898928
  52.8917217  66.3979101  12.3085344   8.4544784  54.3631601  35.9490037
   8.0894786  53.5156012  35.6947374   7.9946005  54.9968767  35.3984165
  48.9062500  63.2162237  10.8500874  49.2880917  63.5630322  10.0437665
  47.9681730  63.1630230  10.6673002  46.2521839  54.8531532   5.7264614
  45.8263350  55.3172493   6.4472234  46.3028765  53.9445734   6.0233605
  30.6814742  33.4583640  22.9299664  30.0553179  32.7607250  22.7364302
  30.7112217  33.4950709  23.8860011  56.7136240  70.1091623  12.5983047
  57.5376415  69.7400856  12.9161239  56.4077473  70.6647730  13.3152199
  11.3952911  25.9521675  13.4062910  11.0544920  26.3923645  12.6276302
  12.0703363  25.3618383  13.0715406  68.1270218  56.4023829  46.2618113
  68.7637281  55.8185911  45.8494711  68.5407400  57.2651434  46.2351513
  79.2927742   2.0587803  39.1772580  79.1924238   1.5434083  38.3769131
  78.4331751   2.4566029  39.3153191  15.3506839  68.5227299  31.5995646
  16.1360681  68.2203865  32.0556283  14.8352778  67.7286530  31.4580250
   2.7433082  23.4797239  51.5715027   3.0037808  24.2835093  51.1217070
   2.4222995  22.9081917  50.8739805  49.6309328   2.5674751  38.6851573
  49.8185873   1.8272944  38.1079674  49.8067188   2.2352959  39.5654917
  19.4362807  65.9596395   5.6185722  18.9426756  65.5973530   6.3543260
  20.0656080  66.5566969   6.0231709  48.4777498  60.9959793   7.5343817
  47.7649164  60.4987764   7.1332759  48.6821127  60.5164385   8.3371961
  15.0744617  54.8040247   5.5148739  15.9139633  55.1768446   5.7840824
  14.5872319  54.6963739   6.3317275  45.1369286  37.3239303   0.8457293
  44.7319508  38.0186486   0.3265084  45.6195784  36.7984104   0.2076767
  36.7014027  36.3094473  17.0048726  36.7994165  35.5789661  16.3941169
  35.7615638  36.4907646  17.0125568  62.4464035  61.6558123   4.3922544
  62.7003717  62.5178242   4.0626124  62.5118780  61.0794020   3.6308762
  61.8359518  13.4583127  39.1448450  62.4627638  13.3825254  38.4254050
  61.6919613  14.3999374  39.2388654  51.4559698  16.6496611  19.8990047
  51.6297007  15.8034611  20.3113079  51.2452459  16.4346123  18.9903903
  13.6108577  47.7347469  66.8223333  13.2070613  48.3769989  66.2386465
  12.9918480  47.6473665  67.5471973  57.8492785  16.6324294   9.0967655
  57.1091986  16.0308313   9.0155989  58.4124994  16.4211011   8.3522135
  34.6924758  11.2005925  14.9852049  34.2124701  11.1006176  15.8072948
  35.6141472  11.1471343  15.2379799  23.3861351  31.9464874  42.4513578
  22.9682684  31.6917229  41.6287327  22.8023529  31.6094875  43.1309605
  77.6425171   6.2564480  15.9537435  77.4109650   6.9196737  16.6039336
  77.8493929   6.7568249  15.1644039   2.0071682  66.8243027  42.0078993
   1.1609402  66.6073751  42.3991442   2.6455840  66.6266394  42.6931620
  62.1419573  63.7633848  41.5186596  62.3838186  63.2330561  42.2779226
  62.4456596  64.6448183  41.7356205  49.8646402  70.7629013  33.7148237
  49.5178366  69.8996973  33.9402914  49.9649572  70.7396221  32.7631807
   7.3960924  58.8800716  48.7586451   8.1460816  58.6842585  49.3202543
   7.2563934  59.8210239  48.8650560  20.9774041  45.3101730  22.2344494
  20.8385825  44.7692490  21.4570403  21.8413281  45.7008743  22.1032310
  36.7862821  71.6391373   7.5574195  36.6656327  71.8671751   8.4791976
  35.9052110  71.6734028   7.1849048  29.5890117  61.3337326  20.6432843
  29.8925447  61.5987396  19.7750270  29.8139715  62.0708656  21.2109613
  52.0747852  62.7584839  45.6448793  52.9635191  63.0419874  45.8593798
  51.5147400  63.2522964  46.2438202  62.6619768  54.1750813   8.7765646
  63.5210943  53.9510679   8.4188348  62.7627182  54.0734673   9.7230095
  40.9152555  51.2581873   6.3932246  41.0004473  50.4272223   5.9258074
  40.4856968  51.0268164   7.2167414  37.6674485  53.5188532  35.4980040
  37.7904749  53.0592775  36.3286018  38.0359173  52.9285097  34.8407698
   1.4746040  27.0804739   1.5254410   1.7952974  27.3689461   0.6709402
   1.4110172  26.1284924   1.4484946  60.7347775  51.2186861  34.7500181
  61.1652374  50.5789757  35.3172088  59.8066759  51.1515045  34.9744153
  21.5183687  49.3489265  62.7018595  22.0989180  49.6601629  62.0073652
  22.0638442  48.7611198  63.2245207  37.3084354  68.9937305  31.9296598
  37.7821231  68.7263393  31.1420345  36.9587064  69.8589277  31.7166758
  33.7511492  70.5600309   8.7036347  34.2276931  70.0102901   8.0815995
  33.5375857  69.9721050   9.4281799  80.9066677  36.7702007  61.3371277
  80.5214024  37.4335003  61.9096947  80.6027317  37.0048952  60.4603291
  29.2905688  39.8922634   4.0122160  28.9362001  39.1265845   3.5601214
  29.1389108  40.6187868   3.4077382  52.3025799   9.5573491  35.6899023
  52.3138380   8.8102555  36.2881947  53.2250500   9.7845823  35.5731010
   0.1792303  68.5857010  30.0874186  -0.3561204  68.3558464  30.8468914
   0.2332016  67.7766514  29.5787334  50.0058842  64.1736221  18.8669586
  50.1898813  64.8944855  19.4692314  49.9292088  63.4039974  19.4308960
  60.3227425  33.9179206   6.6066563  59.8582411  33.0824161   6.6556954
  60.6249475  34.0767932   7.5008959   0.6768347  41.4250612  21.2112784
   1.3735846  40.8563042  20.8837295  -0.1208727  40.9041405  21.1188745
  13.3118141  36.8122959  14.0311420  13.7959135  35.9973049  14.1640770
  13.7859058  37.4602246  14.5523489  56.9876528  43.5346317  40.3682327
  56.4030027  43.8844252  41.0405874  57.5857496  44.2557907  40.1721478
   9.5294154  34.5274329   1.8608400   9.0020669  34.3909907   1.0737446
   8.9424264  34.3059945   2.5837788  58.0854034  70.8391380  21.5251207
  57.4740314  70.9812164  20.8024359  57.9529047  71.5911674  22.1022940
   6.3098264  51.4477348  56.4342928   6.1308247  52.3618460  56.6547346
   5.6104445  51.2064457  55.8269453  12.9472637  29.1876268  48.3433819
  13.0400121  28.4839368  47.7011585  13.7645721  29.6814609  48.2772970
  72.6337910  29.1192436  52.9479790  73.1575394  28.5492253  52.3849487
  72.6439428  28.6871672  53.8020515   2.1327731  71.1982250  32.4321795
   2.1719956  70.2442312  32.4999332   2.1093111  71.3707256  31.4909434
   7.5952446   6.5478504  62.2050476   7.6774567   6.0758042  61.3764095
   7.4374288   5.8637989  62.8557396  53.3103991  71.7829847   7.8238225
  53.4083223  70.9165382   8.2186836  53.8872671  72.3473549   8.3385450
  78.3793089   5.0772763  66.8774822  78.1069323   5.6822110  66.1874838
  77.7961966   5.2724553  67.6110467  22.6641369  71.9465446   5.1556027
  23.0573297  72.7591228   5.4739588  22.9936719  71.2722063   5.7496607
  31.0297394  50.2185774   7.3098338  31.0049558  50.6554365   6.4584988
  31.1131310  50.9318399   7.9427111  71.8654728  71.7436981  66.2777996
  72.0640993  71.4346266  65.3939152  71.2633038  72.4759579  66.1458111
  44.5383024  54.6784544   2.4498825  45.0213528  53.8685369   2.2857679
  43.6749458  54.3871784   2.7431408  37.1273708  21.9131422  66.5646315
  36.7000651  22.7382684  66.3348293  37.7854466  21.7857742  65.8813000
  10.9800935  12.4761891  40.3069687  10.7997572  13.4161067  40.3232861
  10.8266330  12.1872115  41.2065077  42.1508169  15.1608360  62.3487568
  41.3723469  14.7266304  61.9999266  42.8009033  14.4623637  62.4246311
  55.5813360  41.6952562  16.9412184  55.6526947  42.4956560  16.4211190
  56.4796829  41.3713694  17.0068312  29.9349398   0.9190372  36.5467548
  30.3671015   1.2142996  37.3481822  29.2749433   0.2940658  36.8468404
  57.1074629  55.7361460  17.2224009  56.5007925  55.4372311  16.5450299
  56.6713333  56.4905119  17.6185775  35.9037876   9.2212540  56.8659830
  36.6066885   9.5729738  57.4122953  35.1211691   9.6943516  57.1486855
  72.7644110  61.4118242  44.9452972  73.1543303  61.1743784  45.7866144
  73.4050226  61.1243391  44.2947578   9.2042702  22.7111673  34.8669696
   9.2967427  22.3060894  35.7292867   8.2682192  22.8949451  34.7878122
  24.2495680  56.1230564  61.6051626  24.0458202  57.0216179  61.3457394
  25.2032542  56.1073828  61.6855955  78.4524775  71.7714643  47.7130175
  79.0302849  71.7195177  48.4743834  78.4123087  72.7051640  47.5060892
  73.6689568  59.0671301  18.3577204  74.4602299  59.4369555  17.9661202
  73.9246559  58.1847429  18.6265004  40.0216484  49.0127993   1.3714117
  39.4841433  48.2230139   1.3116880  40.8382797  48.7807417   0.9292686
  34.3319607  26.4327669  55.4329538  35.0251842  25.7982397  55.6147480
  33.8556886  26.5105820  56.2595987  12.7220929  25.2184510  33.5065842
  13.4176528  25.5088925  32.9166055  11.9527841  25.7188296  33.2345247
  49.1634560  35.9430695  11.1565292  50.0207806  35.6611323  11.4754951
  49.2784882  36.8701863  10.9480703  79.4365788  71.6097879  25.4716849
  79.0463734  71.1362028  24.7370481  80.2877140  71.1914682  25.6013465
  18.2527447  29.1048765  63.9757633  18.7981081  29.7584414  64.4135571
  18.1782961  29.4196773  63.0748796   5.9488428  16.5828931  66.6397810
   5.1611519  17.0522141  66.9145775   5.8675337  16.5149462  65.6884670
   5.3101158  65.3825760  55.4419756   5.5791789  66.2706852  55.2072525
   6.0613853  64.8359585  55.2116728  38.7583685  45.6868410  10.5476081
  39.0478230  46.3617182   9.9336147  39.5406270  45.1597929  10.7104731
  33.5345745  20.6911349  15.1605988  33.0438304  20.6559801  15.9816754
  32.9780579  21.1993885  14.5705163  26.4829755  42.5170898   4.8589835
  25.8011127  42.1730232   4.2819998  26.1945033  43.4056854   5.0673491
  18.9950621   9.8615354  64.5461035  19.5335841   9.1061312  64.7818756
  18.9274502  10.3692234  65.3547525  30.0490928  27.4159288  62.5332880
  30.7473421  27.5341988  61.8893194  29.7458553  28.3036685  62.7235413
  82.4766002  82.4766002  82.4766002 109.4712190 109.4712190 109.4712190
